<?xml version="1.0"?> 
<VTKFile type="UnstructuredGrid"> 
   <UnstructuredGrid> 
      <Piece NumberOfPoints="6000"  NumberOfCells="1500">  
          <Points>  
             <DataArray type="Float64" NumberOfComponents="3" format="ascii">   
-500.0   0.0   0.0
-450.0   0.0   0.0
-500.0   30.0   0.0
-500.0   0.0   16.666666666666668
-450.0   0.0   0.0
-450.0   30.0   0.0
-500.0   30.0   0.0
-450.0   30.0   16.666666666666668
-500.0   0.0   16.666666666666668
-500.0   30.0   16.666666666666668
-450.0   30.0   16.666666666666668
-500.0   30.0   0.0
-500.0   0.0   16.666666666666668
-450.0   30.0   16.666666666666668
-450.0   0.0   16.666666666666668
-450.0   0.0   0.0
-500.0   0.0   16.666666666666668
-450.0   30.0   16.666666666666668
-450.0   0.0   0.0
-500.0   30.0   0.0
-500.0   0.0   16.666666666666668
-450.0   0.0   16.666666666666668
-500.0   30.0   16.666666666666668
-500.0   0.0   33.333333333333336
-450.0   0.0   16.666666666666668
-450.0   30.0   16.666666666666668
-500.0   30.0   16.666666666666668
-450.0   30.0   33.333333333333336
-500.0   0.0   33.333333333333336
-500.0   30.0   33.333333333333336
-450.0   30.0   33.333333333333336
-500.0   30.0   16.666666666666668
-500.0   0.0   33.333333333333336
-450.0   30.0   33.333333333333336
-450.0   0.0   33.333333333333336
-450.0   0.0   16.666666666666668
-500.0   0.0   33.333333333333336
-450.0   30.0   33.333333333333336
-450.0   0.0   16.666666666666668
-500.0   30.0   16.666666666666668
-500.0   0.0   33.333333333333336
-450.0   0.0   33.333333333333336
-500.0   30.0   33.333333333333336
-500.0   0.0   50.0
-450.0   0.0   33.333333333333336
-450.0   30.0   33.333333333333336
-500.0   30.0   33.333333333333336
-450.0   30.0   50.0
-500.0   0.0   50.0
-500.0   30.0   50.0
-450.0   30.0   50.0
-500.0   30.0   33.333333333333336
-500.0   0.0   50.0
-450.0   30.0   50.0
-450.0   0.0   50.0
-450.0   0.0   33.333333333333336
-500.0   0.0   50.0
-450.0   30.0   50.0
-450.0   0.0   33.333333333333336
-500.0   30.0   33.333333333333336
-500.0   30.0   0.0
-450.0   30.0   0.0
-500.0   60.0   0.0
-500.0   30.0   16.666666666666668
-450.0   30.0   0.0
-450.0   60.0   0.0
-500.0   60.0   0.0
-450.0   60.0   16.666666666666668
-500.0   30.0   16.666666666666668
-500.0   60.0   16.666666666666668
-450.0   60.0   16.666666666666668
-500.0   60.0   0.0
-500.0   30.0   16.666666666666668
-450.0   60.0   16.666666666666668
-450.0   30.0   16.666666666666668
-450.0   30.0   0.0
-500.0   30.0   16.666666666666668
-450.0   60.0   16.666666666666668
-450.0   30.0   0.0
-500.0   60.0   0.0
-500.0   30.0   16.666666666666668
-450.0   30.0   16.666666666666668
-500.0   60.0   16.666666666666668
-500.0   30.0   33.333333333333336
-450.0   30.0   16.666666666666668
-450.0   60.0   16.666666666666668
-500.0   60.0   16.666666666666668
-450.0   60.0   33.333333333333336
-500.0   30.0   33.333333333333336
-500.0   60.0   33.333333333333336
-450.0   60.0   33.333333333333336
-500.0   60.0   16.666666666666668
-500.0   30.0   33.333333333333336
-450.0   60.0   33.333333333333336
-450.0   30.0   33.333333333333336
-450.0   30.0   16.666666666666668
-500.0   30.0   33.333333333333336
-450.0   60.0   33.333333333333336
-450.0   30.0   16.666666666666668
-500.0   60.0   16.666666666666668
-500.0   30.0   33.333333333333336
-450.0   30.0   33.333333333333336
-500.0   60.0   33.333333333333336
-500.0   30.0   50.0
-450.0   30.0   33.333333333333336
-450.0   60.0   33.333333333333336
-500.0   60.0   33.333333333333336
-450.0   60.0   50.0
-500.0   30.0   50.0
-500.0   60.0   50.0
-450.0   60.0   50.0
-500.0   60.0   33.333333333333336
-500.0   30.0   50.0
-450.0   60.0   50.0
-450.0   30.0   50.0
-450.0   30.0   33.333333333333336
-500.0   30.0   50.0
-450.0   60.0   50.0
-450.0   30.0   33.333333333333336
-500.0   60.0   33.333333333333336
-500.0   60.0   0.0
-450.0   60.0   0.0
-500.0   90.0   0.0
-500.0   60.0   16.666666666666668
-450.0   60.0   0.0
-450.0   90.0   0.0
-500.0   90.0   0.0
-450.0   90.0   16.666666666666668
-500.0   60.0   16.666666666666668
-500.0   90.0   16.666666666666668
-450.0   90.0   16.666666666666668
-500.0   90.0   0.0
-500.0   60.0   16.666666666666668
-450.0   90.0   16.666666666666668
-450.0   60.0   16.666666666666668
-450.0   60.0   0.0
-500.0   60.0   16.666666666666668
-450.0   90.0   16.666666666666668
-450.0   60.0   0.0
-500.0   90.0   0.0
-500.0   60.0   16.666666666666668
-450.0   60.0   16.666666666666668
-500.0   90.0   16.666666666666668
-500.0   60.0   33.333333333333336
-450.0   60.0   16.666666666666668
-450.0   90.0   16.666666666666668
-500.0   90.0   16.666666666666668
-450.0   90.0   33.333333333333336
-500.0   60.0   33.333333333333336
-500.0   90.0   33.333333333333336
-450.0   90.0   33.333333333333336
-500.0   90.0   16.666666666666668
-500.0   60.0   33.333333333333336
-450.0   90.0   33.333333333333336
-450.0   60.0   33.333333333333336
-450.0   60.0   16.666666666666668
-500.0   60.0   33.333333333333336
-450.0   90.0   33.333333333333336
-450.0   60.0   16.666666666666668
-500.0   90.0   16.666666666666668
-500.0   60.0   33.333333333333336
-450.0   60.0   33.333333333333336
-500.0   90.0   33.333333333333336
-500.0   60.0   50.0
-450.0   60.0   33.333333333333336
-450.0   90.0   33.333333333333336
-500.0   90.0   33.333333333333336
-450.0   90.0   50.0
-500.0   60.0   50.0
-500.0   90.0   50.0
-450.0   90.0   50.0
-500.0   90.0   33.333333333333336
-500.0   60.0   50.0
-450.0   90.0   50.0
-450.0   60.0   50.0
-450.0   60.0   33.333333333333336
-500.0   60.0   50.0
-450.0   90.0   50.0
-450.0   60.0   33.333333333333336
-500.0   90.0   33.333333333333336
-500.0   90.0   0.0
-450.0   90.0   0.0
-500.0   120.0   0.0
-500.0   90.0   16.666666666666668
-450.0   90.0   0.0
-450.0   120.0   0.0
-500.0   120.0   0.0
-450.0   120.0   16.666666666666668
-500.0   90.0   16.666666666666668
-500.0   120.0   16.666666666666668
-450.0   120.0   16.666666666666668
-500.0   120.0   0.0
-500.0   90.0   16.666666666666668
-450.0   120.0   16.666666666666668
-450.0   90.0   16.666666666666668
-450.0   90.0   0.0
-500.0   90.0   16.666666666666668
-450.0   120.0   16.666666666666668
-450.0   90.0   0.0
-500.0   120.0   0.0
-500.0   90.0   16.666666666666668
-450.0   90.0   16.666666666666668
-500.0   120.0   16.666666666666668
-500.0   90.0   33.333333333333336
-450.0   90.0   16.666666666666668
-450.0   120.0   16.666666666666668
-500.0   120.0   16.666666666666668
-450.0   120.0   33.333333333333336
-500.0   90.0   33.333333333333336
-500.0   120.0   33.333333333333336
-450.0   120.0   33.333333333333336
-500.0   120.0   16.666666666666668
-500.0   90.0   33.333333333333336
-450.0   120.0   33.333333333333336
-450.0   90.0   33.333333333333336
-450.0   90.0   16.666666666666668
-500.0   90.0   33.333333333333336
-450.0   120.0   33.333333333333336
-450.0   90.0   16.666666666666668
-500.0   120.0   16.666666666666668
-500.0   90.0   33.333333333333336
-450.0   90.0   33.333333333333336
-500.0   120.0   33.333333333333336
-500.0   90.0   50.0
-450.0   90.0   33.333333333333336
-450.0   120.0   33.333333333333336
-500.0   120.0   33.333333333333336
-450.0   120.0   50.0
-500.0   90.0   50.0
-500.0   120.0   50.0
-450.0   120.0   50.0
-500.0   120.0   33.333333333333336
-500.0   90.0   50.0
-450.0   120.0   50.0
-450.0   90.0   50.0
-450.0   90.0   33.333333333333336
-500.0   90.0   50.0
-450.0   120.0   50.0
-450.0   90.0   33.333333333333336
-500.0   120.0   33.333333333333336
-500.0   120.0   0.0
-450.0   120.0   0.0
-500.0   150.0   0.0
-500.0   120.0   16.666666666666668
-450.0   120.0   0.0
-450.0   150.0   0.0
-500.0   150.0   0.0
-450.0   150.0   16.666666666666668
-500.0   120.0   16.666666666666668
-500.0   150.0   16.666666666666668
-450.0   150.0   16.666666666666668
-500.0   150.0   0.0
-500.0   120.0   16.666666666666668
-450.0   150.0   16.666666666666668
-450.0   120.0   16.666666666666668
-450.0   120.0   0.0
-500.0   120.0   16.666666666666668
-450.0   150.0   16.666666666666668
-450.0   120.0   0.0
-500.0   150.0   0.0
-500.0   120.0   16.666666666666668
-450.0   120.0   16.666666666666668
-500.0   150.0   16.666666666666668
-500.0   120.0   33.333333333333336
-450.0   120.0   16.666666666666668
-450.0   150.0   16.666666666666668
-500.0   150.0   16.666666666666668
-450.0   150.0   33.333333333333336
-500.0   120.0   33.333333333333336
-500.0   150.0   33.333333333333336
-450.0   150.0   33.333333333333336
-500.0   150.0   16.666666666666668
-500.0   120.0   33.333333333333336
-450.0   150.0   33.333333333333336
-450.0   120.0   33.333333333333336
-450.0   120.0   16.666666666666668
-500.0   120.0   33.333333333333336
-450.0   150.0   33.333333333333336
-450.0   120.0   16.666666666666668
-500.0   150.0   16.666666666666668
-500.0   120.0   33.333333333333336
-450.0   120.0   33.333333333333336
-500.0   150.0   33.333333333333336
-500.0   120.0   50.0
-450.0   120.0   33.333333333333336
-450.0   150.0   33.333333333333336
-500.0   150.0   33.333333333333336
-450.0   150.0   50.0
-500.0   120.0   50.0
-500.0   150.0   50.0
-450.0   150.0   50.0
-500.0   150.0   33.333333333333336
-500.0   120.0   50.0
-450.0   150.0   50.0
-450.0   120.0   50.0
-450.0   120.0   33.333333333333336
-500.0   120.0   50.0
-450.0   150.0   50.0
-450.0   120.0   33.333333333333336
-500.0   150.0   33.333333333333336
-450.0   0.0   0.0
-400.0   0.0   0.0
-450.0   30.0   0.0
-450.0   0.0   16.666666666666668
-400.0   0.0   0.0
-400.0   30.0   0.0
-450.0   30.0   0.0
-400.0   30.0   16.666666666666668
-450.0   0.0   16.666666666666668
-450.0   30.0   16.666666666666668
-400.0   30.0   16.666666666666668
-450.0   30.0   0.0
-450.0   0.0   16.666666666666668
-400.0   30.0   16.666666666666668
-400.0   0.0   16.666666666666668
-400.0   0.0   0.0
-450.0   0.0   16.666666666666668
-400.0   30.0   16.666666666666668
-400.0   0.0   0.0
-450.0   30.0   0.0
-450.0   0.0   16.666666666666668
-400.0   0.0   16.666666666666668
-450.0   30.0   16.666666666666668
[...]
          <PointData>  
             <DataArray type="Float64" NumberOfComponents="3" Name="Strains" format="ascii">   
-0.00011314908742652768   0.0   -7.420835994025676e-05
-0.00011314908742652768   0.0   -7.420835994025676e-05
-0.00011314908742652768   0.0   -7.420835994025676e-05
-0.00011314908742652768   0.0   -7.420835994025676e-05
-7.20040595025534e-05   1.2541594093521178e-05   1.8916430558129304e-06
-7.20040595025534e-05   1.2541594093521178e-05   1.8916430558129304e-06
-7.20040595025534e-05   1.2541594093521178e-05   1.8916430558129304e-06
-7.20040595025534e-05   1.2541594093521178e-05   1.8916430558129304e-06
-7.058378904986639e-05   0.0   -7.00312578678054e-05
-7.058378904986639e-05   0.0   -7.00312578678054e-05
-7.058378904986639e-05   0.0   -7.00312578678054e-05
-7.058378904986639e-05   0.0   -7.00312578678054e-05
-0.00011842049591123555   1.5047285845797017e-05   6.682153936653072e-07
-0.00011842049591123555   1.5047285845797017e-05   6.682153936653072e-07
-0.00011842049591123555   1.5047285845797017e-05   6.682153936653072e-07
-0.00011842049591123555   1.5047285845797017e-05   6.682153936653072e-07
-9.186643823819688e-05   3.480918393709457e-06   -3.6648726923479925e-05
-9.186643823819688e-05   3.480918393709457e-06   -3.6648726923479925e-05
-9.186643823819688e-05   3.480918393709457e-06   -3.6648726923479925e-05
-9.186643823819688e-05   3.480918393709457e-06   -3.6648726923479925e-05
-0.00011842049591123575   0.0   -7.905962937528364e-05
-0.00011842049591123575   0.0   -7.905962937528364e-05
-0.00011842049591123575   0.0   -7.905962937528364e-05
-0.00011842049591123575   0.0   -7.905962937528364e-05
-7.058378904986639e-05   1.5047285845797045e-05   9.696586901143512e-06
-7.058378904986639e-05   1.5047285845797045e-05   9.696586901143512e-06
-7.058378904986639e-05   1.5047285845797045e-05   9.696586901143512e-06
-7.058378904986639e-05   1.5047285845797045e-05   9.696586901143512e-06
-7.078688856273776e-05   0.0   -7.174646460614033e-05
-7.078688856273776e-05   0.0   -7.174646460614033e-05
-7.078688856273776e-05   0.0   -7.174646460614033e-05
-7.078688856273776e-05   0.0   -7.174646460614033e-05
-0.0001221244094616717   1.6120008729441e-05   4.144064987751921e-06
-0.0001221244094616717   1.6120008729441e-05   4.144064987751921e-06
-0.0001221244094616717   1.6120008729441e-05   4.144064987751921e-06
-0.0001221244094616717   1.6120008729441e-05   4.144064987751921e-06
-9.460369223698659e-05   6.094303974286083e-06   -3.5708374200296906e-05
-9.460369223698659e-05   6.094303974286083e-06   -3.5708374200296906e-05
-9.460369223698659e-05   6.094303974286083e-06   -3.5708374200296906e-05
-9.460369223698659e-05   6.094303974286083e-06   -3.5708374200296906e-05
-0.00012212440946167188   0.0   -8.141846984380496e-05
-0.00012212440946167188   0.0   -8.141846984380496e-05
-0.00012212440946167188   0.0   -8.141846984380496e-05
-0.00012212440946167188   0.0   -8.141846984380496e-05
-7.078688856273776e-05   1.6120008729441054e-05   1.381607022541651e-05
-7.078688856273776e-05   1.6120008729441054e-05   1.381607022541651e-05
-7.078688856273776e-05   1.6120008729441054e-05   1.381607022541651e-05
-7.078688856273776e-05   1.6120008729441054e-05   1.381607022541651e-05
-7.075423645049001e-05   0.0   -7.218656714888413e-05
-7.075423645049001e-05   0.0   -7.218656714888413e-05
-7.075423645049001e-05   0.0   -7.218656714888413e-05
-7.075423645049001e-05   0.0   -7.218656714888413e-05
-0.0001300996496597838   1.8361214076088395e-05   1.5705726420952795e-05
-0.0001300996496597838   1.8361214076088395e-05   1.5705726420952795e-05
-0.0001300996496597838   1.8361214076088395e-05   1.5705726420952795e-05
-0.0001300996496597838   1.8361214076088395e-05   1.5705726420952795e-05
-9.643932295608079e-05   7.693252245767353e-06   -3.3994040987026205e-05
-9.643932295608079e-05   7.693252245767353e-06   -3.3994040987026205e-05
-9.643932295608079e-05   7.693252245767353e-06   -3.3994040987026205e-05
-9.643932295608079e-05   7.693252245767353e-06   -3.3994040987026205e-05
-7.200405950255352e-05   0.0   -6.668340348414404e-05
-7.200405950255352e-05   0.0   -6.668340348414404e-05
-7.200405950255352e-05   0.0   -6.668340348414404e-05
-7.200405950255352e-05   0.0   -6.668340348414404e-05
-3.278636524706816e-05   4.601084256259256e-06   1.4400708287537099e-06
-3.278636524706816e-05   4.601084256259256e-06   1.4400708287537099e-06
-3.278636524706816e-05   4.601084256259256e-06   1.4400708287537099e-06
-3.278636524706816e-05   4.601084256259256e-06   1.4400708287537099e-06
-3.1537400515516e-05   0.0   -6.610229958983074e-05
-3.1537400515516e-05   0.0   -6.610229958983074e-05
-3.1537400515516e-05   0.0   -6.610229958983074e-05
-3.1537400515516e-05   0.0   -6.610229958983074e-05
-7.058378904986639e-05   6.548263796624456e-06   -4.9539436438881184e-06
-7.058378904986639e-05   6.548263796624456e-06   -4.9539436438881184e-06
-7.058378904986639e-05   6.548263796624456e-06   -4.9539436438881184e-06
-7.058378904986639e-05   6.548263796624456e-06   -4.9539436438881184e-06
-5.177073000903467e-05   4.842532452610965e-07   -3.267063571445605e-05
-5.177073000903467e-05   4.842532452610965e-07   -3.267063571445605e-05
-5.177073000903467e-05   4.842532452610965e-07   -3.267063571445605e-05
-5.177073000903467e-05   4.842532452610965e-07   -3.267063571445605e-05
-7.058378904986632e-05   0.0   -7.003125786780535e-05
-7.058378904986632e-05   0.0   -7.003125786780535e-05
-7.058378904986632e-05   0.0   -7.003125786780535e-05
-7.058378904986632e-05   0.0   -7.003125786780535e-05
-3.1537400515516e-05   6.548263796624456e-06   -1.024985365913446e-06
-3.1537400515516e-05   6.548263796624456e-06   -1.024985365913446e-06
-3.1537400515516e-05   6.548263796624456e-06   -1.024985365913446e-06
-3.1537400515516e-05   6.548263796624456e-06   -1.024985365913446e-06
-3.0837595218996164e-05   0.0   -6.693289741484082e-05
-3.0837595218996164e-05   0.0   -6.693289741484082e-05
-3.0837595218996164e-05   0.0   -6.693289741484082e-05
-3.0837595218996164e-05   0.0   -6.693289741484082e-05
-7.078688856273776e-05   8.022611985499195e-06   -5.1643090332376595e-06
-7.078688856273776e-05   8.022611985499195e-06   -5.1643090332376595e-06
-7.078688856273776e-05   8.022611985499195e-06   -5.1643090332376595e-06
-7.078688856273776e-05   8.022611985499195e-06   -5.1643090332376595e-06
-5.0710692134431176e-05   2.5819670441371654e-06   -3.536024944893115e-05
-5.0710692134431176e-05   2.5819670441371654e-06   -3.536024944893115e-05
-5.0710692134431176e-05   2.5819670441371654e-06   -3.536024944893115e-05
-5.0710692134431176e-05   2.5819670441371654e-06   -3.536024944893115e-05
-7.078688856273776e-05   0.0   -7.174646460614033e-05
-7.078688856273776e-05   0.0   -7.174646460614033e-05
-7.078688856273776e-05   0.0   -7.174646460614033e-05
-7.078688856273776e-05   0.0   -7.174646460614033e-05
-3.0837595218996164e-05   8.022611985499195e-06   -3.507418419381478e-07
-3.0837595218996164e-05   8.022611985499195e-06   -3.507418419381478e-07
-3.0837595218996164e-05   8.022611985499195e-06   -3.507418419381478e-07
-3.0837595218996164e-05   8.022611985499195e-06   -3.507418419381478e-07
-3.0201035189151717e-05   0.0   -6.658599500318212e-05
-3.0201035189151717e-05   0.0   -6.658599500318212e-05
-3.0201035189151717e-05   0.0   -6.658599500318212e-05
-3.0201035189151717e-05   0.0   -6.658599500318212e-05
-7.075423645048982e-05   9.334286909503251e-06   -4.597898379986976e-06
-7.075423645048982e-05   9.334286909503251e-06   -4.597898379986976e-06
-7.075423645048982e-05   9.334286909503251e-06   -4.597898379986976e-06
-7.075423645048982e-05   9.334286909503251e-06   -4.597898379986976e-06
-5.0493961875944724e-05   4.3003913357984725e-06   -3.534468532667284e-05
-5.0493961875944724e-05   4.3003913357984725e-06   -3.534468532667284e-05
-5.0493961875944724e-05   4.3003913357984725e-06   -3.534468532667284e-05
-5.0493961875944724e-05   4.3003913357984725e-06   -3.534468532667284e-05
-3.2786365247068214e-05   0.0   -6.39227529303885e-05
-3.2786365247068214e-05   0.0   -6.39227529303885e-05
-3.2786365247068214e-05   0.0   -6.39227529303885e-05
-3.2786365247068214e-05   0.0   -6.39227529303885e-05
4.270441906776698e-06   -5.884724769177941e-07   -2.5144911601309186e-06
4.270441906776698e-06   -5.884724769177941e-07   -2.5144911601309186e-06
4.270441906776698e-06   -5.884724769177941e-07   -2.5144911601309186e-06
4.270441906776698e-06   -5.884724769177941e-07   -2.5144911601309186e-06
5.0657809274141405e-06   0.0   -6.540601310508978e-05
5.0657809274141405e-06   0.0   -6.540601310508978e-05
5.0657809274141405e-06   0.0   -6.540601310508978e-05
5.0657809274141405e-06   0.0   -6.540601310508978e-05
-3.1537400515516e-05   1.1604774745678818e-06   -5.096997184947151e-06
-3.1537400515516e-05   1.1604774745678818e-06   -5.096997184947151e-06
-3.1537400515516e-05   1.1604774745678818e-06   -5.096997184947151e-06
-3.1537400515516e-05   1.1604774745678818e-06   -5.096997184947151e-06
-1.3860292159827006e-05   -1.2360501455845974e-06   -3.31209278723372e-05
-1.3860292159827006e-05   -1.2360501455845974e-06   -3.31209278723372e-05
-1.3860292159827006e-05   -1.2360501455845974e-06   -3.31209278723372e-05
-1.3860292159827006e-05   -1.2360501455845974e-06   -3.31209278723372e-05
-3.1537400515516e-05   0.0   -6.610229958983074e-05
-3.1537400515516e-05   0.0   -6.610229958983074e-05
-3.1537400515516e-05   0.0   -6.610229958983074e-05
-3.1537400515516e-05   0.0   -6.610229958983074e-05
5.065780927414149e-06   1.1604774745678818e-06   -4.400710700206409e-06
5.065780927414149e-06   1.1604774745678818e-06   -4.400710700206409e-06
5.065780927414149e-06   1.1604774745678818e-06   -4.400710700206409e-06
5.065780927414149e-06   1.1604774745678818e-06   -4.400710700206409e-06
5.692978815544545e-06   0.0   -6.531275023970885e-05
5.692978815544545e-06   0.0   -6.531275023970885e-05
5.692978815544545e-06   0.0   -6.531275023970885e-05
5.692978815544545e-06   0.0   -6.531275023970885e-05
-3.083759521899611e-05   2.70024529188641e-06   -6.0486073572729414e-06
-3.083759521899611e-05   2.70024529188641e-06   -6.0486073572729414e-06
-3.083759521899611e-05   2.70024529188641e-06   -6.0486073572729414e-06
-3.083759521899611e-05   2.70024529188641e-06   -6.0486073572729414e-06
-1.2922210849985723e-05   6.57957791768149e-07   -3.4682208805552693e-05
-1.2922210849985723e-05   6.57957791768149e-07   -3.4682208805552693e-05
-1.2922210849985723e-05   6.57957791768149e-07   -3.4682208805552693e-05
-1.2922210849985723e-05   6.57957791768149e-07   -3.4682208805552693e-05
-3.0837595218996164e-05   0.0   -6.693289741484082e-05
-3.0837595218996164e-05   0.0   -6.693289741484082e-05
-3.0837595218996164e-05   0.0   -6.693289741484082e-05
-3.0837595218996164e-05   0.0   -6.693289741484082e-05
5.692978815544555e-06   2.7002452918864234e-06   -4.4284601821411e-06
5.692978815544555e-06   2.7002452918864234e-06   -4.4284601821411e-06
5.692978815544555e-06   2.7002452918864234e-06   -4.4284601821411e-06
5.692978815544555e-06   2.7002452918864234e-06   -4.4284601821411e-06
6.53821791813197e-06   0.0   -6.38956375440225e-05
6.53821791813197e-06   0.0   -6.38956375440225e-05
6.53821791813197e-06   0.0   -6.38956375440225e-05
6.53821791813197e-06   0.0   -6.38956375440225e-05
-3.020103518915169e-05   4.483929098599276e-06   -5.353906491042631e-06
-3.020103518915169e-05   4.483929098599276e-06   -5.353906491042631e-06
-3.020103518915169e-05   4.483929098599276e-06   -5.353906491042631e-06
-3.020103518915169e-05   4.483929098599276e-06   -5.353906491042631e-06
-1.214968865043207e-05   2.531049892348499e-06   -3.426775653182483e-05
-1.214968865043207e-05   2.531049892348499e-06   -3.426775653182483e-05
-1.214968865043207e-05   2.531049892348499e-06   -3.426775653182483e-05
-1.214968865043207e-05   2.531049892348499e-06   -3.426775653182483e-05
4.270441906776705e-06   0.0   -6.427583641653917e-05
4.270441906776705e-06   0.0   -6.427583641653917e-05
4.270441906776705e-06   0.0   -6.427583641653917e-05
4.270441906776705e-06   0.0   -6.427583641653917e-05
4.4491607614358226e-05   -5.218389841634536e-06   -3.7159414221731826e-07
4.4491607614358226e-05   -5.218389841634536e-06   -3.7159414221731826e-07
4.4491607614358226e-05   -5.218389841634536e-06   -3.7159414221731826e-07
4.4491607614358226e-05   -5.218389841634536e-06   -3.7159414221731826e-07
4.456496529891569e-05   0.0   -6.776708171273605e-05
4.456496529891569e-05   0.0   -6.776708171273605e-05
4.456496529891569e-05   0.0   -6.776708171273605e-05
4.456496529891569e-05   0.0   -6.776708171273605e-05
5.065780927414157e-06   -3.935114346076751e-06   4.2596084741253955e-07
5.065780927414157e-06   -3.935114346076751e-06   4.2596084741253955e-07
5.065780927414157e-06   -3.935114346076751e-06   4.2596084741253955e-07
5.065780927414157e-06   -3.935114346076751e-06   4.2596084741253955e-07
2.44177036028462e-05   -2.909371080164076e-06   -3.244268957118844e-05
2.44177036028462e-05   -2.909371080164076e-06   -3.244268957118844e-05
2.44177036028462e-05   -2.909371080164076e-06   -3.244268957118844e-05
2.44177036028462e-05   -2.909371080164076e-06   -3.244268957118844e-05
5.065780927414157e-06   0.0   -6.540601310509001e-05
5.065780927414157e-06   0.0   -6.540601310509001e-05
5.065780927414157e-06   0.0   -6.540601310509001e-05
5.065780927414157e-06   0.0   -6.540601310509001e-05
4.456496529891569e-05   -3.935114346076751e-06   -1.935107760233504e-06
4.456496529891569e-05   -3.935114346076751e-06   -1.935107760233504e-06
4.456496529891569e-05   -3.935114346076751e-06   -1.935107760233504e-06
4.456496529891569e-05   -3.935114346076751e-06   -1.935107760233504e-06
4.436913970831553e-05   0.0   -6.679935213655795e-05
4.436913970831553e-05   0.0   -6.679935213655795e-05
4.436913970831553e-05   0.0   -6.679935213655795e-05
4.436913970831553e-05   0.0   -6.679935213655795e-05
5.692978815544555e-06   -2.4776698280816424e-06   -8.524820850906732e-07
5.692978815544555e-06   -2.4776698280816424e-06   -8.524820850906732e-07
5.692978815544555e-06   -2.4776698280816424e-06   -8.524820850906732e-07
5.692978815544555e-06   -2.4776698280816424e-06   -8.524820850906732e-07
2.4717460317864844e-05   -1.1611158595566063e-06   -3.3349883636739485e-05
2.4717460317864844e-05   -1.1611158595566063e-06   -3.3349883636739485e-05
2.4717460317864844e-05   -1.1611158595566063e-06   -3.3349883636739485e-05
2.4717460317864844e-05   -1.1611158595566063e-06   -3.3349883636739485e-05
5.69297881554455e-06   0.0   -6.53127502397089e-05
5.69297881554455e-06   0.0   -6.53127502397089e-05
5.69297881554455e-06   0.0   -6.53127502397089e-05
5.69297881554455e-06   0.0   -6.53127502397089e-05
4.436913970831553e-05   -2.4776698280816424e-06   -2.339083981939654e-06
4.436913970831553e-05   -2.4776698280816424e-06   -2.339083981939654e-06
4.436913970831553e-05   -2.4776698280816424e-06   -2.339083981939654e-06
4.436913970831553e-05   -2.4776698280816424e-06   -2.339083981939654e-06
4.522367023923656e-05   0.0   -6.42069700695984e-05
4.522367023923656e-05   0.0   -6.42069700695984e-05
4.522367023923656e-05   0.0   -6.42069700695984e-05
4.522367023923656e-05   0.0   -6.42069700695984e-05
6.538217918131982e-06   -5.188875426263183e-07   5.801163244850154e-07
6.538217918131982e-06   -5.188875426263183e-07   5.801163244850154e-07
6.538217918131982e-06   -5.188875426263183e-07   5.801163244850154e-07
6.538217918131982e-06   -5.188875426263183e-07   5.801163244850154e-07
2.545832452739054e-05   9.21483475092135e-07   -3.181761730157695e-05
2.545832452739054e-05   9.21483475092135e-07   -3.181761730157695e-05
2.545832452739054e-05   9.21483475092135e-07   -3.181761730157695e-05
2.545832452739054e-05   9.21483475092135e-07   -3.181761730157695e-05
4.4491607614358226e-05   0.0   -6.740687032151989e-05
4.4491607614358226e-05   0.0   -6.740687032151989e-05
4.4491607614358226e-05   0.0   -6.740687032151989e-05
4.4491607614358226e-05   0.0   -6.740687032151989e-05
0.00010041572391739067   -1.3224721959967511e-05   1.786515700755425e-05
0.00010041572391739067   -1.3224721959967511e-05   1.786515700755425e-05
0.00010041572391739067   -1.3224721959967511e-05   1.786515700755425e-05
0.00010041572391739067   -1.3224721959967511e-05   1.786515700755425e-05
9.429909323384764e-05   0.0   -7.452018616348905e-05
9.429909323384764e-05   0.0   -7.452018616348905e-05
9.429909323384764e-05   0.0   -7.452018616348905e-05
9.429909323384764e-05   0.0   -7.452018616348905e-05
4.456496529891569e-05   -1.1255174084588324e-05   1.5123131512150532e-05
4.456496529891569e-05   -1.1255174084588324e-05   1.5123131512150532e-05
4.456496529891569e-05   -1.1255174084588324e-05   1.5123131512150532e-05
4.456496529891569e-05   -1.1255174084588324e-05   1.5123131512150532e-05
6.939535042410294e-05   -5.927763201640977e-06   -2.9457290226263262e-05
6.939535042410294e-05   -5.927763201640977e-06   -2.9457290226263262e-05
6.939535042410294e-05   -5.927763201640977e-06   -2.9457290226263262e-05
6.939535042410294e-05   -5.927763201640977e-06   -2.9457290226263262e-05
4.456496529891565e-05   0.0   -6.7767081712736e-05
4.456496529891565e-05   0.0   -6.7767081712736e-05
4.456496529891565e-05   0.0   -6.7767081712736e-05
4.456496529891565e-05   0.0   -6.7767081712736e-05
9.429909323384732e-05   -1.1255174084588297e-05   8.370027061397505e-06
9.429909323384732e-05   -1.1255174084588297e-05   8.370027061397505e-06
9.429909323384732e-05   -1.1255174084588297e-05   8.370027061397505e-06
9.429909323384732e-05   -1.1255174084588297e-05   8.370027061397505e-06
9.147622973433555e-05   0.0   -7.297081633630445e-05
9.147622973433555e-05   0.0   -7.297081633630445e-05
9.147622973433555e-05   0.0   -7.297081633630445e-05
9.147622973433555e-05   0.0   -7.297081633630445e-05
4.436913970831553e-05   -1.0285773666244161e-05   1.1712464573475405e-05
4.436913970831553e-05   -1.0285773666244161e-05   1.1712464573475405e-05
4.436913970831553e-05   -1.0285773666244161e-05   1.1712464573475405e-05
4.436913970831553e-05   -1.0285773666244161e-05   1.1712464573475405e-05
6.802059751662558e-05   -4.336445519640325e-06   -3.127622866167031e-05
6.802059751662558e-05   -4.336445519640325e-06   -3.127622866167031e-05
6.802059751662558e-05   -4.336445519640325e-06   -3.127622866167031e-05
6.802059751662558e-05   -4.336445519640325e-06   -3.127622866167031e-05
4.436913970831553e-05   0.0   -6.679935213655795e-05
4.436913970831553e-05   0.0   -6.679935213655795e-05
4.436913970831553e-05   0.0   -6.679935213655795e-05
4.436913970831553e-05   0.0   -6.679935213655795e-05
9.147622973433522e-05   -1.0285773666244134e-05   5.541000373728873e-06
9.147622973433522e-05   -1.0285773666244134e-05   5.541000373728873e-06
9.147622973433522e-05   -1.0285773666244134e-05   5.541000373728873e-06
9.147622973433522e-05   -1.0285773666244134e-05   5.541000373728873e-06
8.727724697417597e-05   0.0   -6.900572477574277e-05
8.727724697417597e-05   0.0   -6.900572477574277e-05
8.727724697417597e-05   0.0   -6.900572477574277e-05
8.727724697417597e-05   0.0   -6.900572477574277e-05
4.522367023923656e-05   -7.997924510240822e-06   5.882324488634214e-06
4.522367023923656e-05   -7.997924510240822e-06   5.882324488634214e-06
4.522367023923656e-05   -7.997924510240822e-06   5.882324488634214e-06
4.522367023923656e-05   -7.997924510240822e-06   5.882324488634214e-06
6.582319334124583e-05   -1.8386438659874615e-06   -3.214578240126657e-05
6.582319334124583e-05   -1.8386438659874615e-06   -3.214578240126657e-05
6.582319334124583e-05   -1.8386438659874615e-06   -3.214578240126657e-05
6.582319334124583e-05   -1.8386438659874615e-06   -3.214578240126657e-05
-9.821110394649383e-05   1.254159409352115e-05   -6.44048640249499e-05
-9.821110394649383e-05   1.254159409352115e-05   -6.44048640249499e-05
-9.821110394649383e-05   1.254159409352115e-05   -6.44048640249499e-05
-9.821110394649383e-05   1.254159409352115e-05   -6.44048640249499e-05
-6.289997666028229e-05   1.1280752619664521e-05   -6.309490098911294e-06
-6.289997666028229e-05   1.1280752619664521e-05   -6.309490098911294e-06