<?xml version="1.0"?> 
<VTKFile type="UnstructuredGrid"> 
   <UnstructuredGrid> 
      <Piece NumberOfPoints="6000"  NumberOfCells="1500">  
          <Points>  
             <DataArray type="Float64" NumberOfComponents="3" format="ascii">   
-500.0   0.0   0.0
-450.0   0.0   0.0
-500.0   30.0   0.0
-500.0   0.0   16.666666666666668
-450.0   0.0   0.0
-450.0   30.0   0.0
-500.0   30.0   0.0
-450.0   30.0   16.666666666666668
-500.0   0.0   16.666666666666668
-500.0   30.0   16.666666666666668
-450.0   30.0   16.666666666666668
-500.0   30.0   0.0
-500.0   0.0   16.666666666666668
-450.0   30.0   16.666666666666668
-450.0   0.0   16.666666666666668
-450.0   0.0   0.0
-500.0   0.0   16.666666666666668
-450.0   30.0   16.666666666666668
-450.0   0.0   0.0
-500.0   30.0   0.0
-500.0   0.0   16.666666666666668
-450.0   0.0   16.666666666666668
-500.0   30.0   16.666666666666668
-500.0   0.0   33.333333333333336
-450.0   0.0   16.666666666666668
-450.0   30.0   16.666666666666668
-500.0   30.0   16.666666666666668
-450.0   30.0   33.333333333333336
-500.0   0.0   33.333333333333336
-500.0   30.0   33.333333333333336
-450.0   30.0   33.333333333333336
-500.0   30.0   16.666666666666668
-500.0   0.0   33.333333333333336
-450.0   30.0   33.333333333333336
-450.0   0.0   33.333333333333336
-450.0   0.0   16.666666666666668
-500.0   0.0   33.333333333333336
-450.0   30.0   33.333333333333336
-450.0   0.0   16.666666666666668
-500.0   30.0   16.666666666666668
-500.0   0.0   33.333333333333336
-450.0   0.0   33.333333333333336
-500.0   30.0   33.333333333333336
-500.0   0.0   50.0
-450.0   0.0   33.333333333333336
-450.0   30.0   33.333333333333336
-500.0   30.0   33.333333333333336
-450.0   30.0   50.0
-500.0   0.0   50.0
-500.0   30.0   50.0
-450.0   30.0   50.0
-500.0   30.0   33.333333333333336
-500.0   0.0   50.0
-450.0   30.0   50.0
-450.0   0.0   50.0
-450.0   0.0   33.333333333333336
-500.0   0.0   50.0
-450.0   30.0   50.0
-450.0   0.0   33.333333333333336
-500.0   30.0   33.333333333333336
-500.0   30.0   0.0
-450.0   30.0   0.0
-500.0   60.0   0.0
-500.0   30.0   16.666666666666668
-450.0   30.0   0.0
-450.0   60.0   0.0
-500.0   60.0   0.0
-450.0   60.0   16.666666666666668
-500.0   30.0   16.666666666666668
-500.0   60.0   16.666666666666668
-450.0   60.0   16.666666666666668
-500.0   60.0   0.0
-500.0   30.0   16.666666666666668
-450.0   60.0   16.666666666666668
-450.0   30.0   16.666666666666668
-450.0   30.0   0.0
-500.0   30.0   16.666666666666668
-450.0   60.0   16.666666666666668
-450.0   30.0   0.0
-500.0   60.0   0.0
-500.0   30.0   16.666666666666668
-450.0   30.0   16.666666666666668
-500.0   60.0   16.666666666666668
-500.0   30.0   33.333333333333336
-450.0   30.0   16.666666666666668
-450.0   60.0   16.666666666666668
-500.0   60.0   16.666666666666668
-450.0   60.0   33.333333333333336
-500.0   30.0   33.333333333333336
-500.0   60.0   33.333333333333336
-450.0   60.0   33.333333333333336
-500.0   60.0   16.666666666666668
-500.0   30.0   33.333333333333336
-450.0   60.0   33.333333333333336
-450.0   30.0   33.333333333333336
-450.0   30.0   16.666666666666668
-500.0   30.0   33.333333333333336
-450.0   60.0   33.333333333333336
-450.0   30.0   16.666666666666668
-500.0   60.0   16.666666666666668
-500.0   30.0   33.333333333333336
-450.0   30.0   33.333333333333336
-500.0   60.0   33.333333333333336
-500.0   30.0   50.0
-450.0   30.0   33.333333333333336
-450.0   60.0   33.333333333333336
-500.0   60.0   33.333333333333336
-450.0   60.0   50.0
-500.0   30.0   50.0
-500.0   60.0   50.0
-450.0   60.0   50.0
-500.0   60.0   33.333333333333336
-500.0   30.0   50.0
-450.0   60.0   50.0
-450.0   30.0   50.0
-450.0   30.0   33.333333333333336
-500.0   30.0   50.0
-450.0   60.0   50.0
-450.0   30.0   33.333333333333336
-500.0   60.0   33.333333333333336
-500.0   60.0   0.0
-450.0   60.0   0.0
-500.0   90.0   0.0
-500.0   60.0   16.666666666666668
-450.0   60.0   0.0
-450.0   90.0   0.0
-500.0   90.0   0.0
-450.0   90.0   16.666666666666668
-500.0   60.0   16.666666666666668
-500.0   90.0   16.666666666666668
-450.0   90.0   16.666666666666668
-500.0   90.0   0.0
-500.0   60.0   16.666666666666668
-450.0   90.0   16.666666666666668
-450.0   60.0   16.666666666666668
-450.0   60.0   0.0
-500.0   60.0   16.666666666666668
-450.0   90.0   16.666666666666668
-450.0   60.0   0.0
-500.0   90.0   0.0
-500.0   60.0   16.666666666666668
-450.0   60.0   16.666666666666668
-500.0   90.0   16.666666666666668
-500.0   60.0   33.333333333333336
-450.0   60.0   16.666666666666668
-450.0   90.0   16.666666666666668
-500.0   90.0   16.666666666666668
-450.0   90.0   33.333333333333336
-500.0   60.0   33.333333333333336
-500.0   90.0   33.333333333333336
-450.0   90.0   33.333333333333336
-500.0   90.0   16.666666666666668
-500.0   60.0   33.333333333333336
-450.0   90.0   33.333333333333336
-450.0   60.0   33.333333333333336
-450.0   60.0   16.666666666666668
-500.0   60.0   33.333333333333336
-450.0   90.0   33.333333333333336
-450.0   60.0   16.666666666666668
-500.0   90.0   16.666666666666668
-500.0   60.0   33.333333333333336
-450.0   60.0   33.333333333333336
-500.0   90.0   33.333333333333336
-500.0   60.0   50.0
-450.0   60.0   33.333333333333336
-450.0   90.0   33.333333333333336
-500.0   90.0   33.333333333333336
-450.0   90.0   50.0
-500.0   60.0   50.0
-500.0   90.0   50.0
-450.0   90.0   50.0
-500.0   90.0   33.333333333333336
-500.0   60.0   50.0
-450.0   90.0   50.0
-450.0   60.0   50.0
-450.0   60.0   33.333333333333336
-500.0   60.0   50.0
-450.0   90.0   50.0
-450.0   60.0   33.333333333333336
-500.0   90.0   33.333333333333336
-500.0   90.0   0.0
-450.0   90.0   0.0
-500.0   120.0   0.0
-500.0   90.0   16.666666666666668
-450.0   90.0   0.0
-450.0   120.0   0.0
-500.0   120.0   0.0
-450.0   120.0   16.666666666666668
-500.0   90.0   16.666666666666668
-500.0   120.0   16.666666666666668
-450.0   120.0   16.666666666666668
-500.0   120.0   0.0
-500.0   90.0   16.666666666666668
-450.0   120.0   16.666666666666668
-450.0   90.0   16.666666666666668
-450.0   90.0   0.0
-500.0   90.0   16.666666666666668
-450.0   120.0   16.666666666666668
-450.0   90.0   0.0
-500.0   120.0   0.0
-500.0   90.0   16.666666666666668
-450.0   90.0   16.666666666666668
-500.0   120.0   16.666666666666668
-500.0   90.0   33.333333333333336
-450.0   90.0   16.666666666666668
-450.0   120.0   16.666666666666668
-500.0   120.0   16.666666666666668
-450.0   120.0   33.333333333333336
-500.0   90.0   33.333333333333336
-500.0   120.0   33.333333333333336
-450.0   120.0   33.333333333333336
-500.0   120.0   16.666666666666668
-500.0   90.0   33.333333333333336
-450.0   120.0   33.333333333333336
-450.0   90.0   33.333333333333336
-450.0   90.0   16.666666666666668
-500.0   90.0   33.333333333333336
-450.0   120.0   33.333333333333336
-450.0   90.0   16.666666666666668
-500.0   120.0   16.666666666666668
-500.0   90.0   33.333333333333336
-450.0   90.0   33.333333333333336
-500.0   120.0   33.333333333333336
-500.0   90.0   50.0
-450.0   90.0   33.333333333333336
-450.0   120.0   33.333333333333336
-500.0   120.0   33.333333333333336
-450.0   120.0   50.0
-500.0   90.0   50.0
-500.0   120.0   50.0
-450.0   120.0   50.0
-500.0   120.0   33.333333333333336
-500.0   90.0   50.0
-450.0   120.0   50.0
-450.0   90.0   50.0
-450.0   90.0   33.333333333333336
-500.0   90.0   50.0
-450.0   120.0   50.0
-450.0   90.0   33.333333333333336
-500.0   120.0   33.333333333333336
-500.0   120.0   0.0
-450.0   120.0   0.0
-500.0   150.0   0.0
-500.0   120.0   16.666666666666668
-450.0   120.0   0.0
-450.0   150.0   0.0
-500.0   150.0   0.0
-450.0   150.0   16.666666666666668
-500.0   120.0   16.666666666666668
-500.0   150.0   16.666666666666668
-450.0   150.0   16.666666666666668
-500.0   150.0   0.0
-500.0   120.0   16.666666666666668
-450.0   150.0   16.666666666666668
-450.0   120.0   16.666666666666668
-450.0   120.0   0.0
-500.0   120.0   16.666666666666668
-450.0   150.0   16.666666666666668
-450.0   120.0   0.0
-500.0   150.0   0.0
-500.0   120.0   16.666666666666668
-450.0   120.0   16.666666666666668
-500.0   150.0   16.666666666666668
-500.0   120.0   33.333333333333336
-450.0   120.0   16.666666666666668
-450.0   150.0   16.666666666666668
-500.0   150.0   16.666666666666668
-450.0   150.0   33.333333333333336
-500.0   120.0   33.333333333333336
-500.0   150.0   33.333333333333336
-450.0   150.0   33.333333333333336
-500.0   150.0   16.666666666666668
-500.0   120.0   33.333333333333336
-450.0   150.0   33.333333333333336
-450.0   120.0   33.333333333333336
-450.0   120.0   16.666666666666668
-500.0   120.0   33.333333333333336
-450.0   150.0   33.333333333333336
-450.0   120.0   16.666666666666668
-500.0   150.0   16.666666666666668
-500.0   120.0   33.333333333333336
-450.0   120.0   33.333333333333336
-500.0   150.0   33.333333333333336
-500.0   120.0   50.0
-450.0   120.0   33.333333333333336
-450.0   150.0   33.333333333333336
-500.0   150.0   33.333333333333336
-450.0   150.0   50.0
-500.0   120.0   50.0
-500.0   150.0   50.0
-450.0   150.0   50.0
-500.0   150.0   33.333333333333336
-500.0   120.0   50.0
-450.0   150.0   50.0
-450.0   120.0   50.0
-450.0   120.0   33.333333333333336
-500.0   120.0   50.0
-450.0   150.0   50.0
-450.0   120.0   33.333333333333336
-500.0   150.0   33.333333333333336
-450.0   0.0   0.0
-400.0   0.0   0.0
-450.0   30.0   0.0
-450.0   0.0   16.666666666666668
-400.0   0.0   0.0
-400.0   30.0   0.0
-450.0   30.0   0.0
-400.0   30.0   16.666666666666668
-450.0   0.0   16.666666666666668
-450.0   30.0   16.666666666666668
-400.0   30.0   16.666666666666668
-450.0   30.0   0.0
-450.0   0.0   16.666666666666668
-400.0   30.0   16.666666666666668
-400.0   0.0   16.666666666666668
-400.0   0.0   0.0
-450.0   0.0   16.666666666666668
-400.0   30.0   16.666666666666668
-400.0   0.0   0.0
-450.0   30.0   0.0
-450.0   0.0   16.666666666666668
-400.0   0.0   16.666666666666668
-450.0   30.0   16.666666666666668
[...]
          <PointData>  
             <DataArray type="Float64" NumberOfComponents="3" Name="Strains" format="ascii">   
-6.308032811912394e-05   0.0   -4.1486880286649945e-05
-6.308032811912394e-05   0.0   -4.1486880286649945e-05
-6.308032811912394e-05   0.0   -4.1486880286649945e-05
-6.308032811912394e-05   0.0   -4.1486880286649945e-05
-4.0130614229646377e-05   6.976526895806237e-06   9.485589999629957e-07
-4.0130614229646377e-05   6.976526895806237e-06   9.485589999629957e-07
-4.0130614229646377e-05   6.976526895806237e-06   9.485589999629957e-07
-4.0130614229646377e-05   6.976526895806237e-06   9.485589999629957e-07
-3.933111155235511e-05   0.0   -3.916690832647861e-05
-3.933111155235511e-05   0.0   -3.916690832647861e-05
-3.933111155235511e-05   0.0   -3.916690832647861e-05
-3.933111155235511e-05   0.0   -3.916690832647861e-05
-6.600931584814705e-05   8.37770489969156e-06   2.7014256002651e-07
-6.600931584814705e-05   8.37770489969156e-06   2.7014256002651e-07
-6.600931584814705e-05   8.37770489969156e-06   2.7014256002651e-07
-6.600931584814705e-05   8.37770489969156e-06   2.7014256002651e-07
-5.120571983573943e-05   1.9333099668094456e-06   -2.053588050092354e-05
-5.120571983573943e-05   1.9333099668094456e-06   -2.053588050092354e-05
-5.120571983573943e-05   1.9333099668094456e-06   -2.053588050092354e-05
-5.120571983573943e-05   1.9333099668094456e-06   -2.053588050092354e-05
-6.600931584814715e-05   0.0   -4.419353126629355e-05
-6.600931584814715e-05   0.0   -4.419353126629355e-05
-6.600931584814715e-05   0.0   -4.419353126629355e-05
-6.600931584814715e-05   0.0   -4.419353126629355e-05
-3.933111155235511e-05   8.377704899691573e-06   5.296765499841465e-06
-3.933111155235511e-05   8.377704899691573e-06   5.296765499841465e-06
-3.933111155235511e-05   8.377704899691573e-06   5.296765499841465e-06
-3.933111155235511e-05   8.377704899691573e-06   5.296765499841465e-06
-3.943570756197132e-05   0.0   -4.0123874261499094e-05
-3.943570756197132e-05   0.0   -4.0123874261499094e-05
-3.943570756197132e-05   0.0   -4.0123874261499094e-05
-3.943570756197132e-05   0.0   -4.0123874261499094e-05
-6.806341169408654e-05   8.97695060833275e-06   2.2027955936934683e-06
-6.806341169408654e-05   8.97695060833275e-06   2.2027955936934683e-06
-6.806341169408654e-05   8.97695060833275e-06   2.2027955936934683e-06
-6.806341169408654e-05   8.97695060833275e-06   2.2027955936934683e-06
-5.2722511705059145e-05   3.391380837328716e-06   -2.001402919208308e-05
-5.2722511705059145e-05   3.391380837328716e-06   -2.001402919208308e-05
-5.2722511705059145e-05   3.391380837328716e-06   -2.001402919208308e-05
-5.2722511705059145e-05   3.391380837328716e-06   -2.001402919208308e-05
-6.806341169408666e-05   0.0   -4.5510044626498755e-05
-6.806341169408666e-05   0.0   -4.5510044626498755e-05
-6.806341169408666e-05   0.0   -4.5510044626498755e-05
-6.806341169408666e-05   0.0   -4.5510044626498755e-05
-3.943570756197132e-05   8.976950608332763e-06   7.588965958693142e-06
-3.943570756197132e-05   8.976950608332763e-06   7.588965958693142e-06
-3.943570756197132e-05   8.976950608332763e-06   7.588965958693142e-06
-3.943570756197132e-05   8.976950608332763e-06   7.588965958693142e-06
-3.940784959683345e-05   0.0   -4.037077367689449e-05
-3.940784959683345e-05   0.0   -4.037077367689449e-05
-3.940784959683345e-05   0.0   -4.037077367689449e-05
-3.940784959683345e-05   0.0   -4.037077367689449e-05
-7.249477659330346e-05   1.0231278383703531e-05   8.635337620333574e-06
-7.249477659330346e-05   1.0231278383703531e-05   8.635337620333574e-06
-7.249477659330346e-05   1.0231278383703531e-05   8.635337620333574e-06
-7.249477659330346e-05   1.0231278383703531e-05   8.635337620333574e-06
-5.373563064545996e-05   4.282725791336879e-06   -1.9060774070652225e-05
-5.373563064545996e-05   4.282725791336879e-06   -1.9060774070652225e-05
-5.373563064545996e-05   4.282725791336879e-06   -1.9060774070652225e-05
-5.373563064545996e-05   4.282725791336879e-06   -1.9060774070652225e-05
-4.0130614229646444e-05   0.0   -3.73009641491662e-05
-4.0130614229646444e-05   0.0   -3.73009641491662e-05
-4.0130614229646444e-05   0.0   -3.73009641491662e-05
-4.0130614229646444e-05   0.0   -3.73009641491662e-05
-1.828301276676686e-05   2.556484581316006e-06   6.455957044226812e-07
-1.828301276676686e-05   2.556484581316006e-06   6.455957044226812e-07
-1.828301276676686e-05   2.556484581316006e-06   6.455957044226812e-07
-1.828301276676686e-05   2.556484581316006e-06   6.455957044226812e-07
-1.7578178744414672e-05   0.0   -3.698083739319426e-05
-1.7578178744414672e-05   0.0   -3.698083739319426e-05
-1.7578178744414672e-05   0.0   -3.698083739319426e-05
-1.7578178744414672e-05   0.0   -3.698083739319426e-05
-3.933111155235511e-05   3.6434515554739264e-06   -2.912020313244551e-06
-3.933111155235511e-05   3.6434515554739264e-06   -2.912020313244551e-06
-3.933111155235511e-05   3.6434515554739264e-06   -2.912020313244551e-06
-3.933111155235511e-05   3.6434515554739264e-06   -2.912020313244551e-06
-2.885439648703051e-05   2.667722966432834e-07   -1.8347204533487036e-05
-2.885439648703051e-05   2.667722966432834e-07   -1.8347204533487036e-05
-2.885439648703051e-05   2.667722966432834e-07   -1.8347204533487036e-05
-2.885439648703051e-05   2.667722966432834e-07   -1.8347204533487036e-05
-3.9331111552355074e-05   0.0   -3.916690832647858e-05
-3.9331111552355074e-05   0.0   -3.916690832647858e-05
-3.9331111552355074e-05   0.0   -3.916690832647858e-05
-3.9331111552355074e-05   0.0   -3.916690832647858e-05
-1.7578178744414672e-05   3.6434515554739264e-06   -7.259493799601963e-07
-1.7578178744414672e-05   3.6434515554739264e-06   -7.259493799601963e-07
-1.7578178744414672e-05   3.6434515554739264e-06   -7.259493799601963e-07
-1.7578178744414672e-05   3.6434515554739264e-06   -7.259493799601963e-07
-1.7179736883791395e-05   0.0   -3.7443738716743755e-05
-1.7179736883791395e-05   0.0   -3.7443738716743755e-05
-1.7179736883791395e-05   0.0   -3.7443738716743755e-05
-1.7179736883791395e-05   0.0   -3.7443738716743755e-05
-3.943570756197132e-05   4.466892574592234e-06   -3.030589797865891e-06
-3.943570756197132e-05   4.466892574592234e-06   -3.030589797865891e-06
-3.943570756197132e-05   4.466892574592234e-06   -3.030589797865891e-06
-3.943570756197132e-05   4.466892574592234e-06   -3.030589797865891e-06
-2.8255424218073192e-05   1.4359746747790396e-06   -1.984584463114135e-05
-2.8255424218073192e-05   1.4359746747790396e-06   -1.984584463114135e-05
-2.8255424218073192e-05   1.4359746747790396e-06   -1.984584463114135e-05
-2.8255424218073192e-05   1.4359746747790396e-06   -1.984584463114135e-05
-3.943570756197132e-05   0.0   -4.0123874261499094e-05
-3.943570756197132e-05   0.0   -4.0123874261499094e-05
-3.943570756197132e-05   0.0   -4.0123874261499094e-05
-3.943570756197132e-05   0.0   -4.0123874261499094e-05
-1.7179736883791395e-05   4.466892574592234e-06   -3.504542531105584e-07
-1.7179736883791395e-05   4.466892574592234e-06   -3.504542531105584e-07
-1.7179736883791395e-05   4.466892574592234e-06   -3.504542531105584e-07
-1.7179736883791395e-05   4.466892574592234e-06   -3.504542531105584e-07
-1.6815879558097597e-05   0.0   -3.725122304628932e-05
-1.6815879558097597e-05   0.0   -3.725122304628932e-05
-1.6815879558097597e-05   0.0   -3.725122304628932e-05
-1.6815879558097597e-05   0.0   -3.725122304628932e-05
-3.940784959683334e-05   5.199251051008557e-06   -2.7174902790013923e-06
-3.940784959683334e-05   5.199251051008557e-06   -2.7174902790013923e-06
-3.940784959683334e-05   5.199251051008557e-06   -2.7174902790013923e-06
-3.940784959683334e-05   5.199251051008557e-06   -2.7174902790013923e-06
-2.812579356003445e-05   2.3938760126747895e-06   -1.983769198399944e-05
-2.812579356003445e-05   2.3938760126747895e-06   -1.983769198399944e-05
-2.812579356003445e-05   2.3938760126747895e-06   -1.983769198399944e-05
-2.812579356003445e-05   2.3938760126747895e-06   -1.983769198399944e-05
-1.8283012766766893e-05   0.0   -3.5767073400376595e-05
-1.8283012766766893e-05   0.0   -3.5767073400376595e-05
-1.8283012766766893e-05   0.0   -3.5767073400376595e-05
-1.8283012766766893e-05   0.0   -3.5767073400376595e-05
2.3534611341201104e-06   -3.292025185593189e-07   -1.5704717433671474e-06
2.3534611341201104e-06   -3.292025185593189e-07   -1.5704717433671474e-06
2.3534611341201104e-06   -3.292025185593189e-07   -1.5704717433671474e-06
2.3534611341201104e-06   -3.292025185593189e-07   -1.5704717433671474e-06
2.8062873733701995e-06   0.0   -3.659283592382513e-05
2.8062873733701995e-06   0.0   -3.659283592382513e-05
2.8062873733701995e-06   0.0   -3.659283592382513e-05
2.8062873733701995e-06   0.0   -3.659283592382513e-05
-1.7578178744414672e-05   6.466691156149865e-07   -3.0067271968861272e-06
-1.7578178744414672e-05   6.466691156149865e-07   -3.0067271968861272e-06
-1.7578178744414672e-05   6.466691156149865e-07   -3.0067271968861272e-06
-1.7578178744414672e-05   6.466691156149865e-07   -3.0067271968861272e-06
-7.738362696698328e-06   -6.881354362072194e-07   -1.8605537878653295e-05
-7.738362696698328e-06   -6.881354362072194e-07   -1.8605537878653295e-05
-7.738362696698328e-06   -6.881354362072194e-07   -1.8605537878653295e-05
-7.738362696698328e-06   -6.881354362072194e-07   -1.8605537878653295e-05
-1.7578178744414672e-05   0.0   -3.698083739319426e-05
-1.7578178744414672e-05   0.0   -3.698083739319426e-05
-1.7578178744414672e-05   0.0   -3.698083739319426e-05
-1.7578178744414672e-05   0.0   -3.698083739319426e-05
2.8062873733702046e-06   6.466691156149933e-07   -2.6187257275171245e-06
2.8062873733702046e-06   6.466691156149933e-07   -2.6187257275171245e-06
2.8062873733702046e-06   6.466691156149933e-07   -2.6187257275171245e-06
2.8062873733702046e-06   6.466691156149933e-07   -2.6187257275171245e-06
3.164522506273239e-06   0.0   -3.653999865922348e-05
3.164522506273239e-06   0.0   -3.653999865922348e-05
3.164522506273239e-06   0.0   -3.653999865922348e-05
3.164522506273239e-06   0.0   -3.653999865922348e-05
-1.7179736883791364e-05   1.5062334292003488e-06   -3.5366397333026933e-06
-1.7179736883791364e-05   1.5062334292003488e-06   -3.5366397333026933e-06
-1.7179736883791364e-05   1.5062334292003488e-06   -3.5366397333026933e-06
-1.7179736883791364e-05   1.5062334292003488e-06   -3.5366397333026933e-06
-7.206828119070714e-06   3.673656116422542e-07   -1.9474833650635628e-05
-7.206828119070714e-06   3.673656116422542e-07   -1.9474833650635628e-05
-7.206828119070714e-06   3.673656116422542e-07   -1.9474833650635628e-05
-7.206828119070714e-06   3.673656116422542e-07   -1.9474833650635628e-05
-1.7179736883791395e-05   0.0   -3.7443738716743755e-05
-1.7179736883791395e-05   0.0   -3.7443738716743755e-05
-1.7179736883791395e-05   0.0   -3.7443738716743755e-05
-1.7179736883791395e-05   0.0   -3.7443738716743755e-05
3.1645225062732444e-06   1.506233429200342e-06   -2.6328996757824886e-06
3.1645225062732444e-06   1.506233429200342e-06   -2.6328996757824886e-06
3.1645225062732444e-06   1.506233429200342e-06   -2.6328996757824886e-06
3.1645225062732444e-06   1.506233429200342e-06   -2.6328996757824886e-06
3.6444300714153245e-06   0.0   -3.5750351888039827e-05
3.6444300714153245e-06   0.0   -3.5750351888039827e-05
3.6444300714153245e-06   0.0   -3.5750351888039827e-05
3.6444300714153245e-06   0.0   -3.5750351888039827e-05
-1.6815879558097583e-05   2.5014519304157606e-06   -3.1507069971011104e-06
-1.6815879558097583e-05   2.5014519304157606e-06   -3.1507069971011104e-06
-1.6815879558097583e-05   2.5014519304157606e-06   -3.1507069971011104e-06
-1.6815879558097583e-05   2.5014519304157606e-06   -3.1507069971011104e-06
-6.76765340618802e-06   1.411155690586556e-06   -1.9243572839719505e-05
-6.76765340618802e-06   1.411155690586556e-06   -1.9243572839719505e-05
-6.76765340618802e-06   1.411155690586556e-06   -1.9243572839719505e-05
-6.76765340618802e-06   1.411155690586556e-06   -1.9243572839719505e-05
2.3534611341201146e-06   0.0   -3.596459491151219e-05
2.3534611341201146e-06   0.0   -3.596459491151219e-05
2.3534611341201146e-06   0.0   -3.596459491151219e-05
2.3534611341201146e-06   0.0   -3.596459491151219e-05
2.4759422192733683e-05   -2.9040606531765777e-06   -3.637628723954998e-07
2.4759422192733683e-05   -2.9040606531765777e-06   -3.637628723954998e-07
2.4759422192733683e-05   -2.9040606531765777e-06   -3.637628723954998e-07
2.4759422192733683e-05   -2.9040606531765777e-06   -3.637628723954998e-07
2.481101523705409e-05   0.0   -3.790533273574425e-05
2.481101523705409e-05   0.0   -3.790533273574425e-05
2.481101523705409e-05   0.0   -3.790533273574425e-05
2.481101523705409e-05   0.0   -3.790533273574425e-05
2.8062873733702093e-06   -2.1874946865316447e-06   8.171051564786895e-08
2.8062873733702093e-06   -2.1874946865316447e-06   8.171051564786895e-08
2.8062873733702093e-06   -2.1874946865316447e-06   8.171051564786895e-08
2.8062873733702093e-06   -2.1874946865316447e-06   8.171051564786895e-08
1.3582238185587103e-05   -1.6172815201933857e-06   -1.8220335404516554e-05
1.3582238185587103e-05   -1.6172815201933857e-06   -1.8220335404516554e-05
1.3582238185587103e-05   -1.6172815201933857e-06   -1.8220335404516554e-05
1.3582238185587103e-05   -1.6172815201933857e-06   -1.8220335404516554e-05
2.8062873733702093e-06   0.0   -3.659283592382526e-05
2.8062873733702093e-06   0.0   -3.659283592382526e-05
2.8062873733702093e-06   0.0   -3.659283592382526e-05
2.8062873733702093e-06   0.0   -3.659283592382526e-05
2.481101523705409e-05   -2.1874946865316447e-06   -1.230786296271122e-06
2.481101523705409e-05   -2.1874946865316447e-06   -1.230786296271122e-06
2.481101523705409e-05   -2.1874946865316447e-06   -1.230786296271122e-06
2.481101523705409e-05   -2.1874946865316447e-06   -1.230786296271122e-06
2.471127403163967e-05   0.0   -3.736411310441869e-05
2.471127403163967e-05   0.0   -3.736411310441869e-05
2.471127403163967e-05   0.0   -3.736411310441869e-05
2.471127403163967e-05   0.0   -3.736411310441869e-05
3.1645225062732444e-06   -1.3735240753252325e-06   -6.287461169461735e-07
3.1645225062732444e-06   -1.3735240753252325e-06   -6.287461169461735e-07
3.1645225062732444e-06   -1.3735240753252325e-06   -6.287461169461735e-07
3.1645225062732444e-06   -1.3735240753252325e-06   -6.287461169461735e-07
1.375878070250494e-05   -6.427309838278587e-07   -1.8724318965564077e-05
1.375878070250494e-05   -6.427309838278587e-07   -1.8724318965564077e-05
1.375878070250494e-05   -6.427309838278587e-07   -1.8724318965564077e-05
1.375878070250494e-05   -6.427309838278587e-07   -1.8724318965564077e-05
3.164522506273242e-06   0.0   -3.653999865922352e-05
3.164522506273242e-06   0.0   -3.653999865922352e-05
3.164522506273242e-06   0.0   -3.653999865922352e-05
3.164522506273242e-06   0.0   -3.653999865922352e-05
2.471127403163967e-05   -1.3735240753252325e-06   -1.4528605621413147e-06
2.471127403163967e-05   -1.3735240753252325e-06   -1.4528605621413147e-06
2.471127403163967e-05   -1.3735240753252325e-06   -1.4528605621413147e-06
2.471127403163967e-05   -1.3735240753252325e-06   -1.4528605621413147e-06
2.5196122650912325e-05   0.0   -3.59184278983962e-05
2.5196122650912325e-05   0.0   -3.59184278983962e-05
2.5196122650912325e-05   0.0   -3.59184278983962e-05
2.5196122650912325e-05   0.0   -3.59184278983962e-05
3.644430071415331e-06   -2.801266839271737e-07   1.6913574445509371e-07
3.644430071415331e-06   -2.801266839271737e-07   1.6913574445509371e-07
3.644430071415331e-06   -2.801266839271737e-07   1.6913574445509371e-07
3.644430071415331e-06   -2.801266839271737e-07   1.6913574445509371e-07
1.4180322578592774e-05   5.179756340227982e-07   -1.7869546491610612e-05
1.4180322578592774e-05   5.179756340227982e-07   -1.7869546491610612e-05
1.4180322578592774e-05   5.179756340227982e-07   -1.7869546491610612e-05
1.4180322578592774e-05   5.179756340227982e-07   -1.7869546491610612e-05
2.4759422192733683e-05   0.0   -3.770703130341813e-05
2.4759422192733683e-05   0.0   -3.770703130341813e-05
2.4759422192733683e-05   0.0   -3.770703130341813e-05
2.4759422192733683e-05   0.0   -3.770703130341813e-05
5.5937938876335106e-05   -7.3668707103873325e-06   9.837040743018803e-06
5.5937938876335106e-05   -7.3668707103873325e-06   9.837040743018803e-06
5.5937938876335106e-05   -7.3668707103873325e-06   9.837040743018803e-06
5.5937938876335106e-05   -7.3668707103873325e-06   9.837040743018803e-06
5.2544580286259416e-05   0.0   -4.1663755663198476e-05
5.2544580286259416e-05   0.0   -4.1663755663198476e-05
5.2544580286259416e-05   0.0   -4.1663755663198476e-05
5.2544580286259416e-05   0.0   -4.1663755663198476e-05
2.481101523705409e-05   -6.26403821242371e-06   8.317275679597953e-06
2.481101523705409e-05   -6.26403821242371e-06   8.317275679597953e-06
2.481101523705409e-05   -6.26403821242371e-06   8.317275679597953e-06
2.481101523705409e-05   -6.26403821242371e-06   8.317275679597953e-06
3.865200123949655e-05   -3.297270299816952e-06   -1.6531095072036847e-05
3.865200123949655e-05   -3.297270299816952e-06   -1.6531095072036847e-05
3.865200123949655e-05   -3.297270299816952e-06   -1.6531095072036847e-05
3.865200123949655e-05   -3.297270299816952e-06   -1.6531095072036847e-05
2.481101523705407e-05   0.0   -3.7905332735744214e-05
2.481101523705407e-05   0.0   -3.7905332735744214e-05
2.481101523705407e-05   0.0   -3.7905332735744214e-05
2.481101523705407e-05   0.0   -3.7905332735744214e-05
5.2544580286259233e-05   -6.264038212423683e-06   4.5588527521436985e-06
5.2544580286259233e-05   -6.264038212423683e-06   4.5588527521436985e-06
5.2544580286259233e-05   -6.264038212423683e-06   4.5588527521436985e-06
5.2544580286259233e-05   -6.264038212423683e-06   4.5588527521436985e-06
5.0982712326478226e-05   0.0   -4.0797614862806614e-05
5.0982712326478226e-05   0.0   -4.0797614862806614e-05
5.0982712326478226e-05   0.0   -4.0797614862806614e-05
5.0982712326478226e-05   0.0   -4.0797614862806614e-05
2.471127403163967e-05   -5.722502930646548e-06   6.421617386978894e-06
2.471127403163967e-05   -5.722502930646548e-06   6.421617386978894e-06
2.471127403163967e-05   -5.722502930646548e-06   6.421617386978894e-06
2.471127403163967e-05   -5.722502930646548e-06   6.421617386978894e-06
3.7896863781766137e-05   -2.410235105885307e-06   -1.754172622475529e-05
3.7896863781766137e-05   -2.410235105885307e-06   -1.754172622475529e-05
3.7896863781766137e-05   -2.410235105885307e-06   -1.754172622475529e-05
3.7896863781766137e-05   -2.410235105885307e-06   -1.754172622475529e-05
2.471127403163967e-05   0.0   -3.736411310441869e-05
2.471127403163967e-05   0.0   -3.736411310441869e-05
2.471127403163967e-05   0.0   -3.736411310441869e-05
2.471127403163967e-05   0.0   -3.736411310441869e-05
5.098271232647805e-05   -5.722502930646521e-06   2.9881156285909636e-06
5.098271232647805e-05   -5.722502930646521e-06   2.9881156285909636e-06
5.098271232647805e-05   -5.722502930646521e-06   2.9881156285909636e-06
5.098271232647805e-05   -5.722502930646521e-06   2.9881156285909636e-06
4.865297260384608e-05   0.0   -3.8584209723371775e-05
4.865297260384608e-05   0.0   -3.8584209723371775e-05
4.865297260384608e-05   0.0   -3.8584209723371775e-05
4.865297260384608e-05   0.0   -3.8584209723371775e-05
2.5196122650912325e-05   -4.442969708292745e-06   3.176322023160204e-06
2.5196122650912325e-05   -4.442969708292745e-06   3.176322023160204e-06
2.5196122650912325e-05   -4.442969708292745e-06   3.176322023160204e-06
2.5196122650912325e-05   -4.442969708292745e-06   3.176322023160204e-06
3.668212331774292e-05   -1.0167471824609615e-06   -1.8022745937056503e-05
3.668212331774292e-05   -1.0167471824609615e-06   -1.8022745937056503e-05
3.668212331774292e-05   -1.0167471824609615e-06   -1.8022745937056503e-05
3.668212331774292e-05   -1.0167471824609615e-06   -1.8022745937056503e-05
-5.46666325966713e-05   6.976526895806237e-06   -3.5926330941485073e-05
-5.46666325966713e-05   6.976526895806237e-06   -3.5926330941485073e-05
-5.46666325966713e-05   6.976526895806237e-06   -3.5926330941485073e-05