<?xml version="1.0"?> 
<VTKFile type="UnstructuredGrid"> 
   <UnstructuredGrid> 
      <Piece NumberOfPoints="6000"  NumberOfCells="1500">  
          <Points>  
             <DataArray type="Float64" NumberOfComponents="3" format="ascii">   
-500.0   0.0   0.0
-450.0   0.0   0.0
-500.0   30.0   0.0
-500.0   0.0   16.666666666666668
-450.0   0.0   0.0
-450.0   30.0   0.0
-500.0   30.0   0.0
-450.0   30.0   16.666666666666668
-500.0   0.0   16.666666666666668
-500.0   30.0   16.666666666666668
-450.0   30.0   16.666666666666668
-500.0   30.0   0.0
-500.0   0.0   16.666666666666668
-450.0   30.0   16.666666666666668
-450.0   0.0   16.666666666666668
-450.0   0.0   0.0
-500.0   0.0   16.666666666666668
-450.0   30.0   16.666666666666668
-450.0   0.0   0.0
-500.0   30.0   0.0
-500.0   0.0   16.666666666666668
-450.0   0.0   16.666666666666668
-500.0   30.0   16.666666666666668
-500.0   0.0   33.333333333333336
-450.0   0.0   16.666666666666668
-450.0   30.0   16.666666666666668
-500.0   30.0   16.666666666666668
-450.0   30.0   33.333333333333336
-500.0   0.0   33.333333333333336
-500.0   30.0   33.333333333333336
-450.0   30.0   33.333333333333336
-500.0   30.0   16.666666666666668
-500.0   0.0   33.333333333333336
-450.0   30.0   33.333333333333336
-450.0   0.0   33.333333333333336
-450.0   0.0   16.666666666666668
-500.0   0.0   33.333333333333336
-450.0   30.0   33.333333333333336
-450.0   0.0   16.666666666666668
-500.0   30.0   16.666666666666668
-500.0   0.0   33.333333333333336
-450.0   0.0   33.333333333333336
-500.0   30.0   33.333333333333336
-500.0   0.0   50.0
-450.0   0.0   33.333333333333336
-450.0   30.0   33.333333333333336
-500.0   30.0   33.333333333333336
-450.0   30.0   50.0
-500.0   0.0   50.0
-500.0   30.0   50.0
-450.0   30.0   50.0
-500.0   30.0   33.333333333333336
-500.0   0.0   50.0
-450.0   30.0   50.0
-450.0   0.0   50.0
-450.0   0.0   33.333333333333336
-500.0   0.0   50.0
-450.0   30.0   50.0
-450.0   0.0   33.333333333333336
-500.0   30.0   33.333333333333336
-500.0   30.0   0.0
-450.0   30.0   0.0
-500.0   60.0   0.0
-500.0   30.0   16.666666666666668
-450.0   30.0   0.0
-450.0   60.0   0.0
-500.0   60.0   0.0
-450.0   60.0   16.666666666666668
-500.0   30.0   16.666666666666668
-500.0   60.0   16.666666666666668
-450.0   60.0   16.666666666666668
-500.0   60.0   0.0
-500.0   30.0   16.666666666666668
-450.0   60.0   16.666666666666668
-450.0   30.0   16.666666666666668
-450.0   30.0   0.0
-500.0   30.0   16.666666666666668
-450.0   60.0   16.666666666666668
-450.0   30.0   0.0
-500.0   60.0   0.0
-500.0   30.0   16.666666666666668
-450.0   30.0   16.666666666666668
-500.0   60.0   16.666666666666668
-500.0   30.0   33.333333333333336
-450.0   30.0   16.666666666666668
-450.0   60.0   16.666666666666668
-500.0   60.0   16.666666666666668
-450.0   60.0   33.333333333333336
-500.0   30.0   33.333333333333336
-500.0   60.0   33.333333333333336
-450.0   60.0   33.333333333333336
-500.0   60.0   16.666666666666668
-500.0   30.0   33.333333333333336
-450.0   60.0   33.333333333333336
-450.0   30.0   33.333333333333336
-450.0   30.0   16.666666666666668
-500.0   30.0   33.333333333333336
-450.0   60.0   33.333333333333336
-450.0   30.0   16.666666666666668
-500.0   60.0   16.666666666666668
-500.0   30.0   33.333333333333336
-450.0   30.0   33.333333333333336
-500.0   60.0   33.333333333333336
-500.0   30.0   50.0
-450.0   30.0   33.333333333333336
-450.0   60.0   33.333333333333336
-500.0   60.0   33.333333333333336
-450.0   60.0   50.0
-500.0   30.0   50.0
-500.0   60.0   50.0
-450.0   60.0   50.0
-500.0   60.0   33.333333333333336
-500.0   30.0   50.0
-450.0   60.0   50.0
-450.0   30.0   50.0
-450.0   30.0   33.333333333333336
-500.0   30.0   50.0
-450.0   60.0   50.0
-450.0   30.0   33.333333333333336
-500.0   60.0   33.333333333333336
-500.0   60.0   0.0
-450.0   60.0   0.0
-500.0   90.0   0.0
-500.0   60.0   16.666666666666668
-450.0   60.0   0.0
-450.0   90.0   0.0
-500.0   90.0   0.0
-450.0   90.0   16.666666666666668
-500.0   60.0   16.666666666666668
-500.0   90.0   16.666666666666668
-450.0   90.0   16.666666666666668
-500.0   90.0   0.0
-500.0   60.0   16.666666666666668
-450.0   90.0   16.666666666666668
-450.0   60.0   16.666666666666668
-450.0   60.0   0.0
-500.0   60.0   16.666666666666668
-450.0   90.0   16.666666666666668
-450.0   60.0   0.0
-500.0   90.0   0.0
-500.0   60.0   16.666666666666668
-450.0   60.0   16.666666666666668
-500.0   90.0   16.666666666666668
-500.0   60.0   33.333333333333336
-450.0   60.0   16.666666666666668
-450.0   90.0   16.666666666666668
-500.0   90.0   16.666666666666668
-450.0   90.0   33.333333333333336
-500.0   60.0   33.333333333333336
-500.0   90.0   33.333333333333336
-450.0   90.0   33.333333333333336
-500.0   90.0   16.666666666666668
-500.0   60.0   33.333333333333336
-450.0   90.0   33.333333333333336
-450.0   60.0   33.333333333333336
-450.0   60.0   16.666666666666668
-500.0   60.0   33.333333333333336
-450.0   90.0   33.333333333333336
-450.0   60.0   16.666666666666668
-500.0   90.0   16.666666666666668
-500.0   60.0   33.333333333333336
-450.0   60.0   33.333333333333336
-500.0   90.0   33.333333333333336
-500.0   60.0   50.0
-450.0   60.0   33.333333333333336
-450.0   90.0   33.333333333333336
-500.0   90.0   33.333333333333336
-450.0   90.0   50.0
-500.0   60.0   50.0
-500.0   90.0   50.0
-450.0   90.0   50.0
-500.0   90.0   33.333333333333336
-500.0   60.0   50.0
-450.0   90.0   50.0
-450.0   60.0   50.0
-450.0   60.0   33.333333333333336
-500.0   60.0   50.0
-450.0   90.0   50.0
-450.0   60.0   33.333333333333336
-500.0   90.0   33.333333333333336
-500.0   90.0   0.0
-450.0   90.0   0.0
-500.0   120.0   0.0
-500.0   90.0   16.666666666666668
-450.0   90.0   0.0
-450.0   120.0   0.0
-500.0   120.0   0.0
-450.0   120.0   16.666666666666668
-500.0   90.0   16.666666666666668
-500.0   120.0   16.666666666666668
-450.0   120.0   16.666666666666668
-500.0   120.0   0.0
-500.0   90.0   16.666666666666668
-450.0   120.0   16.666666666666668
-450.0   90.0   16.666666666666668
-450.0   90.0   0.0
-500.0   90.0   16.666666666666668
-450.0   120.0   16.666666666666668
-450.0   90.0   0.0
-500.0   120.0   0.0
-500.0   90.0   16.666666666666668
-450.0   90.0   16.666666666666668
-500.0   120.0   16.666666666666668
-500.0   90.0   33.333333333333336
-450.0   90.0   16.666666666666668
-450.0   120.0   16.666666666666668
-500.0   120.0   16.666666666666668
-450.0   120.0   33.333333333333336
-500.0   90.0   33.333333333333336
-500.0   120.0   33.333333333333336
-450.0   120.0   33.333333333333336
-500.0   120.0   16.666666666666668
-500.0   90.0   33.333333333333336
-450.0   120.0   33.333333333333336
-450.0   90.0   33.333333333333336
-450.0   90.0   16.666666666666668
-500.0   90.0   33.333333333333336
-450.0   120.0   33.333333333333336
-450.0   90.0   16.666666666666668
-500.0   120.0   16.666666666666668
-500.0   90.0   33.333333333333336
-450.0   90.0   33.333333333333336
-500.0   120.0   33.333333333333336
-500.0   90.0   50.0
-450.0   90.0   33.333333333333336
-450.0   120.0   33.333333333333336
-500.0   120.0   33.333333333333336
-450.0   120.0   50.0
-500.0   90.0   50.0
-500.0   120.0   50.0
-450.0   120.0   50.0
-500.0   120.0   33.333333333333336
-500.0   90.0   50.0
-450.0   120.0   50.0
-450.0   90.0   50.0
-450.0   90.0   33.333333333333336
-500.0   90.0   50.0
-450.0   120.0   50.0
-450.0   90.0   33.333333333333336
-500.0   120.0   33.333333333333336
-500.0   120.0   0.0
-450.0   120.0   0.0
-500.0   150.0   0.0
-500.0   120.0   16.666666666666668
-450.0   120.0   0.0
-450.0   150.0   0.0
-500.0   150.0   0.0
-450.0   150.0   16.666666666666668
-500.0   120.0   16.666666666666668
-500.0   150.0   16.666666666666668
-450.0   150.0   16.666666666666668
-500.0   150.0   0.0
-500.0   120.0   16.666666666666668
-450.0   150.0   16.666666666666668
-450.0   120.0   16.666666666666668
-450.0   120.0   0.0
-500.0   120.0   16.666666666666668
-450.0   150.0   16.666666666666668
-450.0   120.0   0.0
-500.0   150.0   0.0
-500.0   120.0   16.666666666666668
-450.0   120.0   16.666666666666668
-500.0   150.0   16.666666666666668
-500.0   120.0   33.333333333333336
-450.0   120.0   16.666666666666668
-450.0   150.0   16.666666666666668
-500.0   150.0   16.666666666666668
-450.0   150.0   33.333333333333336
-500.0   120.0   33.333333333333336
-500.0   150.0   33.333333333333336
-450.0   150.0   33.333333333333336
-500.0   150.0   16.666666666666668
-500.0   120.0   33.333333333333336
-450.0   150.0   33.333333333333336
-450.0   120.0   33.333333333333336
-450.0   120.0   16.666666666666668
-500.0   120.0   33.333333333333336
-450.0   150.0   33.333333333333336
-450.0   120.0   16.666666666666668
-500.0   150.0   16.666666666666668
-500.0   120.0   33.333333333333336
-450.0   120.0   33.333333333333336
-500.0   150.0   33.333333333333336
-500.0   120.0   50.0
-450.0   120.0   33.333333333333336
-450.0   150.0   33.333333333333336
-500.0   150.0   33.333333333333336
-450.0   150.0   50.0
-500.0   120.0   50.0
-500.0   150.0   50.0
-450.0   150.0   50.0
-500.0   150.0   33.333333333333336
-500.0   120.0   50.0
-450.0   150.0   50.0
-450.0   120.0   50.0
-450.0   120.0   33.333333333333336
-500.0   120.0   50.0
-450.0   150.0   50.0
-450.0   120.0   33.333333333333336
-500.0   150.0   33.333333333333336
-450.0   0.0   0.0
-400.0   0.0   0.0
-450.0   30.0   0.0
-450.0   0.0   16.666666666666668
-400.0   0.0   0.0
-400.0   30.0   0.0
-450.0   30.0   0.0
-400.0   30.0   16.666666666666668
-450.0   0.0   16.666666666666668
-450.0   30.0   16.666666666666668
-400.0   30.0   16.666666666666668
-450.0   30.0   0.0
-450.0   0.0   16.666666666666668
-400.0   30.0   16.666666666666668
-400.0   0.0   16.666666666666668
-400.0   0.0   0.0
-450.0   0.0   16.666666666666668
-400.0   30.0   16.666666666666668
-400.0   0.0   0.0
-450.0   30.0   0.0
-450.0   0.0   16.666666666666668
-400.0   0.0   16.666666666666668
-450.0   30.0   16.666666666666668
[...]
          <PointData>  
             <DataArray type="Float64" NumberOfComponents="3" Name="Strains" format="ascii">   
-1.3011568811720791e-05   0.0   -8.76540063304332e-06
-1.3011568811720791e-05   0.0   -8.76540063304332e-06
-1.3011568811720791e-05   0.0   -8.76540063304332e-06
-1.3011568811720791e-05   0.0   -8.76540063304332e-06
-8.257168956740062e-06   1.411459698091383e-06   5.4749441127086886e-09
-8.257168956740062e-06   1.411459698091383e-06   5.4749441127086886e-09
-8.257168956740062e-06   1.411459698091383e-06   5.4749441127086886e-09
-8.257168956740062e-06   1.411459698091383e-06   5.4749441127086886e-09
-8.07843405484405e-06   0.0   -8.302558785151887e-06
-8.07843405484405e-06   0.0   -8.302558785151887e-06
-8.07843405484405e-06   0.0   -8.302558785151887e-06
-8.07843405484405e-06   0.0   -8.302558785151887e-06
-1.3598135785058728e-05   1.7081239535860881e-06   -1.2793027361237527e-07
-1.3598135785058728e-05   1.7081239535860881e-06   -1.2793027361237527e-07
-1.3598135785058728e-05   1.7081239535860881e-06   -1.2793027361237527e-07
-1.3598135785058728e-05   1.7081239535860881e-06   -1.2793027361237527e-07
-1.0545001433282402e-05   3.857015399095272e-07   -4.423034078366975e-06
-1.0545001433282402e-05   3.857015399095272e-07   -4.423034078366975e-06
-1.0545001433282402e-05   3.857015399095272e-07   -4.423034078366975e-06
-1.0545001433282402e-05   3.857015399095272e-07   -4.423034078366975e-06
-1.3598135785058752e-05   0.0   -9.327433157303542e-06
-1.3598135785058752e-05   0.0   -9.327433157303542e-06
-1.3598135785058752e-05   0.0   -9.327433157303542e-06
-1.3598135785058752e-05   0.0   -9.327433157303542e-06
-8.07843405484405e-06   1.7081239535860915e-06   8.969440985392817e-07
-8.07843405484405e-06   1.7081239535860915e-06   8.969440985392817e-07
-8.07843405484405e-06   1.7081239535860915e-06   8.969440985392817e-07
-8.07843405484405e-06   1.7081239535860915e-06   8.969440985392817e-07
-8.084526561204659e-06   0.0   -8.50128391685785e-06
-8.084526561204659e-06   0.0   -8.50128391685785e-06
-8.084526561204659e-06   0.0   -8.50128391685785e-06
-8.084526561204659e-06   0.0   -8.50128391685785e-06
-1.4002413926501144e-05   1.8338924872244687e-06   2.6152619963498144e-07
-1.4002413926501144e-05   1.8338924872244687e-06   2.6152619963498144e-07
-1.4002413926501144e-05   1.8338924872244687e-06   2.6152619963498144e-07
-1.4002413926501144e-05   1.8338924872244687e-06   2.6152619963498144e-07
-1.0841331173131687e-05   6.884577003714084e-07   -4.319684183868941e-06
-1.0841331173131687e-05   6.884577003714084e-07   -4.319684183868941e-06
-1.0841331173131687e-05   6.884577003714084e-07   -4.319684183868941e-06
-1.0841331173131687e-05   6.884577003714084e-07   -4.319684183868941e-06
-1.4002413926501169e-05   0.0   -9.601619409192533e-06
-1.4002413926501169e-05   0.0   -9.601619409192533e-06
-1.4002413926501169e-05   0.0   -9.601619409192533e-06
-1.4002413926501169e-05   0.0   -9.601619409192533e-06
-8.084526561204659e-06   1.833892487224472e-06   1.3618616919696627e-06
-8.084526561204659e-06   1.833892487224472e-06   1.3618616919696627e-06
-8.084526561204659e-06   1.833892487224472e-06   1.3618616919696627e-06
-8.084526561204659e-06   1.833892487224472e-06   1.3618616919696627e-06
-8.061462743176225e-06   0.0   -8.554980204904784e-06
-8.061462743176225e-06   0.0   -8.554980204904784e-06
-8.061462743176225e-06   0.0   -8.554980204904784e-06
-8.061462743176225e-06   0.0   -8.554980204904784e-06
-1.4889903526822409e-05   2.1013426913186077e-06   1.5649488197143937e-06
-1.4889903526822409e-05   2.1013426913186077e-06   1.5649488197143937e-06
-1.4889903526822409e-05   2.1013426913186077e-06   1.5649488197143937e-06
-1.4889903526822409e-05   2.1013426913186077e-06   1.5649488197143937e-06
-1.1031938334838678e-05   8.721993369064574e-07   -4.127507154277863e-06
-1.1031938334838678e-05   8.721993369064574e-07   -4.127507154277863e-06
-1.1031938334838678e-05   8.721993369064574e-07   -4.127507154277863e-06
-1.1031938334838678e-05   8.721993369064574e-07   -4.127507154277863e-06
-8.257168956740076e-06   0.0   -7.918524814188489e-06
-8.257168956740076e-06   0.0   -7.918524814188489e-06
-8.257168956740076e-06   0.0   -7.918524814188489e-06
-8.257168956740076e-06   0.0   -7.918524814188489e-06
-3.779660286466306e-06   5.118849063728014e-07   -1.488794199085296e-07
-3.779660286466306e-06   5.118849063728014e-07   -1.488794199085296e-07
-3.779660286466306e-06   5.118849063728014e-07   -1.488794199085296e-07
-3.779660286466306e-06   5.118849063728014e-07   -1.488794199085296e-07
-3.618956973313595e-06   0.0   -7.859375196557861e-06
-3.618956973313595e-06   0.0   -7.859375196557861e-06
-3.618956973313595e-06   0.0   -7.859375196557861e-06
-3.618956973313595e-06   0.0   -7.859375196557861e-06
-8.07843405484405e-06   7.386393143233761e-07   -8.700969826011289e-07
-8.07843405484405e-06   7.386393143233761e-07   -8.700969826011289e-07
-8.07843405484405e-06   7.386393143233761e-07   -8.700969826011289e-07
-8.07843405484405e-06   7.386393143233761e-07   -8.700969826011289e-07
-5.938062965026825e-06   4.9291348025522856e-08   -4.023773352517764e-06
-5.938062965026825e-06   4.9291348025522856e-08   -4.023773352517764e-06
-5.938062965026825e-06   4.9291348025522856e-08   -4.023773352517764e-06
-5.938062965026825e-06   4.9291348025522856e-08   -4.023773352517764e-06
-8.078434054844043e-06   0.0   -8.302558785151879e-06
-8.078434054844043e-06   0.0   -8.302558785151879e-06
-8.078434054844043e-06   0.0   -8.302558785151879e-06
-8.078434054844043e-06   0.0   -8.302558785151879e-06
-3.618956973313595e-06   7.386393143233761e-07   -4.2691339400710256e-07
-3.618956973313595e-06   7.386393143233761e-07   -4.2691339400710256e-07
-3.618956973313595e-06   7.386393143233761e-07   -4.2691339400710256e-07
-3.618956973313595e-06   7.386393143233761e-07   -4.2691339400710256e-07
-3.5218785485864037e-06   0.0   -7.954580018646748e-06
-3.5218785485864037e-06   0.0   -7.954580018646748e-06
-3.5218785485864037e-06   0.0   -7.954580018646748e-06
-3.5218785485864037e-06   0.0   -7.954580018646748e-06
-8.084526561204659e-06   9.111731636851717e-07   -8.968705624940934e-07
-8.084526561204659e-06   9.111731636851717e-07   -8.968705624940934e-07
-8.084526561204659e-06   9.111731636851717e-07   -8.968705624940934e-07
-8.084526561204659e-06   9.111731636851717e-07   -8.968705624940934e-07
-5.800156301715216e-06   2.8998230542094854e-07   -4.3314398133512655e-06
-5.800156301715216e-06   2.8998230542094854e-07   -4.3314398133512655e-06
-5.800156301715216e-06   2.8998230542094854e-07   -4.3314398133512655e-06
-5.800156301715216e-06   2.8998230542094854e-07   -4.3314398133512655e-06
-8.084526561204659e-06   0.0   -8.50128391685785e-06
-8.084526561204659e-06   0.0   -8.50128391685785e-06
-8.084526561204659e-06   0.0   -8.50128391685785e-06
-8.084526561204659e-06   0.0   -8.50128391685785e-06
-3.5218785485864037e-06   9.111731636851717e-07   -3.5016666428299015e-07
-3.5218785485864037e-06   9.111731636851717e-07   -3.5016666428299015e-07
-3.5218785485864037e-06   9.111731636851717e-07   -3.5016666428299015e-07
-3.5218785485864037e-06   9.111731636851717e-07   -3.5016666428299015e-07
-3.4307239270427837e-06   0.0   -7.916451089396507e-06
-3.4307239270427837e-06   0.0   -7.916451089396507e-06
-3.4307239270427837e-06   0.0   -7.916451089396507e-06
-3.4307239270427837e-06   0.0   -7.916451089396507e-06
-8.061462743176205e-06   1.0642151925137839e-06   -8.370821780157103e-07
-8.061462743176205e-06   1.0642151925137839e-06   -8.370821780157103e-07
-8.061462743176205e-06   1.0642151925137839e-06   -8.370821780157103e-07
-8.061462743176205e-06   1.0642151925137839e-06   -8.370821780157103e-07
-5.7576252441237196e-06   4.87360689551115e-07   -4.330698641325616e-06
-5.7576252441237196e-06   4.87360689551115e-07   -4.330698641325616e-06
-5.7576252441237196e-06   4.87360689551115e-07   -4.330698641325616e-06
-5.7576252441237196e-06   4.87360689551115e-07   -4.330698641325616e-06
-3.7796602864663125e-06   0.0   -7.6113938703648074e-06
-3.7796602864663125e-06   0.0   -7.6113938703648074e-06
-3.7796602864663125e-06   0.0   -7.6113938703648074e-06
-3.7796602864663125e-06   0.0   -7.6113938703648074e-06
4.364803614627446e-07   -6.993256020091146e-08   -6.264523266035848e-07
4.364803614627446e-07   -6.993256020091146e-08   -6.264523266035848e-07
4.364803614627446e-07   -6.993256020091146e-08   -6.264523266035848e-07
4.364803614627446e-07   -6.993256020091146e-08   -6.264523266035848e-07
5.467938193259818e-07   0.0   -7.779658742560603e-06
5.467938193259818e-07   0.0   -7.779658742560603e-06
5.467938193259818e-07   0.0   -7.779658742560603e-06
5.467938193259818e-07   0.0   -7.779658742560603e-06
-3.618956973313595e-06   1.3286075666205236e-07   -9.164572088252314e-07
-3.618956973313595e-06   1.3286075666205236e-07   -9.164572088252314e-07
-3.618956973313595e-06   1.3286075666205236e-07   -9.164572088252314e-07
-3.618956973313595e-06   1.3286075666205236e-07   -9.164572088252314e-07
-1.6164332335701617e-06   -1.4022072682985169e-07   -4.090147884969129e-06
-1.6164332335701617e-06   -1.4022072682985169e-07   -4.090147884969129e-06
-1.6164332335701617e-06   -1.4022072682985169e-07   -4.090147884969129e-06
-1.6164332335701617e-06   -1.4022072682985169e-07   -4.090147884969129e-06
-3.618956973313595e-06   0.0   -7.859375196557861e-06
-3.618956973313595e-06   0.0   -7.859375196557861e-06
-3.618956973313595e-06   0.0   -7.859375196557861e-06
-3.618956973313595e-06   0.0   -7.859375196557861e-06
5.467938193259828e-07   1.3286075666205067e-07   -8.367407548279984e-07
5.467938193259828e-07   1.3286075666205067e-07   -8.367407548279984e-07
5.467938193259828e-07   1.3286075666205067e-07   -8.367407548279984e-07
5.467938193259828e-07   1.3286075666205067e-07   -8.367407548279984e-07
6.360661970021284e-07   0.0   -7.767247078738181e-06
6.360661970021284e-07   0.0   -7.767247078738181e-06
6.360661970021284e-07   0.0   -7.767247078738181e-06
6.360661970021284e-07   0.0   -7.767247078738181e-06
-3.5218785485863977e-06   3.1222156651425386e-07   -1.0246721093325249e-06
-3.5218785485863977e-06   3.1222156651425386e-07   -1.0246721093325249e-06
-3.5218785485863977e-06   3.1222156651425386e-07   -1.0246721093325249e-06
-3.5218785485863977e-06   3.1222156651425386e-07   -1.0246721093325249e-06
-1.4914453881557326e-06   7.677343151638911e-08   -4.267458495718255e-06
-1.4914453881557326e-06   7.677343151638911e-08   -4.267458495718255e-06
-1.4914453881557326e-06   7.677343151638911e-08   -4.267458495718255e-06
-1.4914453881557326e-06   7.677343151638911e-08   -4.267458495718255e-06
-3.5218785485864037e-06   0.0   -7.954580018646748e-06
-3.5218785485864037e-06   0.0   -7.954580018646748e-06
-3.5218785485864037e-06   0.0   -7.954580018646748e-06
-3.5218785485864037e-06   0.0   -7.954580018646748e-06
6.360661970021295e-07   3.1222156651425386e-07   -8.373391694239734e-07
6.360661970021295e-07   3.1222156651425386e-07   -8.373391694239734e-07
6.360661970021295e-07   3.1222156651425386e-07   -8.373391694239734e-07
6.360661970021295e-07   3.1222156651425386e-07   -8.373391694239734e-07
7.506422246993646e-07   0.0   -7.605066232057208e-06
7.506422246993646e-07   0.0   -7.605066232057208e-06
7.506422246993646e-07   0.0   -7.605066232057208e-06
7.506422246993646e-07   0.0   -7.605066232057208e-06
-3.4307239270427808e-06   5.189747622321507e-07   -9.475075031595908e-07
-3.4307239270427808e-06   5.189747622321507e-07   -9.475075031595908e-07
-3.4307239270427808e-06   5.189747622321507e-07   -9.475075031595908e-07
-3.4307239270427808e-06   5.189747622321507e-07   -9.475075031595908e-07
-1.3856181619435166e-06   2.9126148882460534e-07   -4.219389147613833e-06
-1.3856181619435166e-06   2.9126148882460534e-07   -4.219389147613833e-06
-1.3856181619435166e-06   2.9126148882460534e-07   -4.219389147613833e-06
-1.3856181619435166e-06   2.9126148882460534e-07   -4.219389147613833e-06
4.3648036146274536e-07   0.0   -7.653353406485355e-06
4.3648036146274536e-07   0.0   -7.653353406485355e-06
4.3648036146274536e-07   0.0   -7.653353406485355e-06
4.3648036146274536e-07   0.0   -7.653353406485355e-06
5.027236771108348e-06   -5.897314647185366e-07   -3.5593160257380164e-07
5.027236771108348e-06   -5.897314647185366e-07   -3.5593160257380164e-07
5.027236771108348e-06   -5.897314647185366e-07   -3.5593160257380164e-07
5.027236771108348e-06   -5.897314647185366e-07   -3.5593160257380164e-07
5.05706517519219e-06   0.0   -8.043583758752555e-06
5.05706517519219e-06   0.0   -8.043583758752555e-06
5.05706517519219e-06   0.0   -8.043583758752555e-06
5.05706517519219e-06   0.0   -8.043583758752555e-06
5.467938193259837e-07   -4.3987502698654314e-07   -2.625398161169537e-07
5.467938193259837e-07   -4.3987502698654314e-07   -2.625398161169537e-07
5.467938193259837e-07   -4.3987502698654314e-07   -2.625398161169537e-07
5.467938193259837e-07   -4.3987502698654314e-07   -2.625398161169537e-07
2.7467727683274676e-06   -3.2519196022266837e-07   -3.997981237844415e-06
2.7467727683274676e-06   -3.2519196022266837e-07   -3.997981237844415e-06
2.7467727683274676e-06   -3.2519196022266837e-07   -3.997981237844415e-06
2.7467727683274676e-06   -3.2519196022266837e-07   -3.997981237844415e-06
5.467938193259837e-07   0.0   -7.77965874256063e-06
5.467938193259837e-07   0.0   -7.77965874256063e-06
5.467938193259837e-07   0.0   -7.77965874256063e-06
5.467938193259837e-07   0.0   -7.77965874256063e-06
5.05706517519219e-06   -4.3987502698654314e-07   -5.264648323088793e-07
5.05706517519219e-06   -4.3987502698654314e-07   -5.264648323088793e-07
5.05706517519219e-06   -4.3987502698654314e-07   -5.264648323088793e-07
5.05706517519219e-06   -4.3987502698654314e-07   -5.264648323088793e-07
5.0534083549639915e-06   0.0   -7.928874072279544e-06
5.0534083549639915e-06   0.0   -7.928874072279544e-06
5.0534083549639915e-06   0.0   -7.928874072279544e-06
5.0534083549639915e-06   0.0   -7.928874072279544e-06
6.360661970021295e-07   -2.6937832256891587e-07   -4.0501014880175915e-07
6.360661970021295e-07   -2.6937832256891587e-07   -4.0501014880175915e-07
6.360661970021295e-07   -2.6937832256891587e-07   -4.0501014880175915e-07
6.360661970021295e-07   -2.6937832256891587e-07   -4.0501014880175915e-07
2.8001010871449874e-06   -1.24346108099095e-07   -4.098754294388411e-06
2.8001010871449874e-06   -1.24346108099095e-07   -4.098754294388411e-06
2.8001010871449874e-06   -1.24346108099095e-07   -4.098754294388411e-06
2.8001010871449874e-06   -1.24346108099095e-07   -4.098754294388411e-06
6.360661970021289e-07   0.0   -7.767247078738188e-06
6.360661970021289e-07   0.0   -7.767247078738188e-06
6.360661970021289e-07   0.0   -7.767247078738188e-06
6.360661970021289e-07   0.0   -7.767247078738188e-06
5.0534083549639915e-06   -2.6937832256891587e-07   -5.666371423431094e-07
5.0534083549639915e-06   -2.6937832256891587e-07   -5.666371423431094e-07
5.0534083549639915e-06   -2.6937832256891587e-07   -5.666371423431094e-07
5.0534083549639915e-06   -2.6937832256891587e-07   -5.666371423431094e-07
5.168575062588779e-06   0.0   -7.62988572719407e-06
5.168575062588779e-06   0.0   -7.62988572719407e-06
5.168575062588779e-06   0.0   -7.62988572719407e-06
5.168575062588779e-06   0.0   -7.62988572719407e-06
7.506422246993659e-07   -4.136582522808157e-08   -2.418448355748678e-07
7.506422246993659e-07   -4.136582522808157e-08   -2.418448355748678e-07
7.506422246993659e-07   -4.136582522808157e-08   -2.418448355748678e-07
7.506422246993659e-07   -4.136582522808157e-08   -2.418448355748678e-07
2.902320629795452e-06   1.1446779295343678e-07   -3.9214756816439185e-06
2.902320629795452e-06   1.1446779295343678e-07   -3.9214756816439185e-06
2.902320629795452e-06   1.1446779295343678e-07   -3.9214756816439185e-06
2.902320629795452e-06   1.1446779295343678e-07   -3.9214756816439185e-06
5.027236771108348e-06   0.0   -8.007192285316477e-06
5.027236771108348e-06   0.0   -8.007192285316477e-06
5.027236771108348e-06   0.0   -8.007192285316477e-06
5.027236771108348e-06   0.0   -8.007192285316477e-06
1.146015383527869e-05   -1.5090194608070506e-06   1.8089244784832617e-06
1.146015383527869e-05   -1.5090194608070506e-06   1.8089244784832617e-06
1.146015383527869e-05   -1.5090194608070506e-06   1.8089244784832617e-06
1.146015383527869e-05   -1.5090194608070506e-06   1.8089244784832617e-06
1.0790067338670903e-05   0.0   -8.807325162907976e-06
1.0790067338670903e-05   0.0   -8.807325162907976e-06
1.0790067338670903e-05   0.0   -8.807325162907976e-06
1.0790067338670903e-05   0.0   -8.807325162907976e-06
5.05706517519219e-06   -1.2729023402590334e-06   1.5114198470452978e-06
5.05706517519219e-06   -1.2729023402590334e-06   1.5114198470452978e-06
5.05706517519219e-06   -1.2729023402590334e-06   1.5114198470452978e-06
5.05706517519219e-06   -1.2729023402590334e-06   1.5114198470452978e-06
7.908652054889625e-06   -6.667773979929168e-07   -3.6048999178100926e-06
7.908652054889625e-06   -6.667773979929168e-07   -3.6048999178100926e-06
7.908652054889625e-06   -6.667773979929168e-07   -3.6048999178100926e-06
7.908652054889625e-06   -6.667773979929168e-07   -3.6048999178100926e-06
5.057065175192186e-06   0.0   -8.043583758752548e-06
5.057065175192186e-06   0.0   -8.043583758752548e-06
5.057065175192186e-06   0.0   -8.043583758752548e-06
5.057065175192186e-06   0.0   -8.043583758752548e-06
1.0790067338670865e-05   -1.2729023402590283e-06   7.47678442889875e-07
1.0790067338670865e-05   -1.2729023402590283e-06   7.47678442889875e-07
1.0790067338670865e-05   -1.2729023402590283e-06   7.47678442889875e-07
1.0790067338670865e-05   -1.2729023402590283e-06   7.47678442889875e-07
1.048919491862105e-05   0.0   -8.624413389308906e-06
1.048919491862105e-05   0.0   -8.624413389308906e-06
1.048919491862105e-05   0.0   -8.624413389308906e-06
1.048919491862105e-05   0.0   -8.624413389308906e-06
5.0534083549639915e-06   -1.1592321950489346e-06   1.1307702004822181e-06
5.0534083549639915e-06   -1.1592321950489346e-06   1.1307702004822181e-06
5.0534083549639915e-06   -1.1592321950489346e-06   1.1307702004822181e-06
5.0534083549639915e-06   -1.1592321950489346e-06   1.1307702004822181e-06
7.773130046906615e-06   -4.840246921302916e-07   -3.8072237878400082e-06
7.773130046906615e-06   -4.840246921302916e-07   -3.8072237878400082e-06
7.773130046906615e-06   -4.840246921302916e-07   -3.8072237878400082e-06
7.773130046906615e-06   -4.840246921302916e-07   -3.8072237878400082e-06
5.0534083549639915e-06   0.0   -7.928874072279544e-06
5.0534083549639915e-06   0.0   -7.928874072279544e-06
5.0534083549639915e-06   0.0   -7.928874072279544e-06
5.0534083549639915e-06   0.0   -7.928874072279544e-06
1.0489194918621014e-05   -1.1592321950489312e-06   4.352308834528543e-07
1.0489194918621014e-05   -1.1592321950489312e-06   4.352308834528543e-07
1.0489194918621014e-05   -1.1592321950489312e-06   4.352308834528543e-07
1.0489194918621014e-05   -1.1592321950489312e-06   4.352308834528543e-07
1.0028698233516833e-05   0.0   -8.162694671000914e-06
1.0028698233516833e-05   0.0   -8.162694671000914e-06
1.0028698233516833e-05   0.0   -8.162694671000914e-06
1.0028698233516833e-05   0.0   -8.162694671000914e-06
5.168575062588779e-06   -8.88014906344763e-07   4.703195576860485e-07
5.168575062588779e-06   -8.88014906344763e-07   4.703195576860485e-07
5.168575062588779e-06   -8.88014906344763e-07   4.703195576860485e-07
5.168575062588779e-06   -8.88014906344763e-07   4.703195576860485e-07
7.541053294240421e-06   -1.948504989344868e-07   -3.899709472846184e-06
7.541053294240421e-06   -1.948504989344868e-07   -3.899709472846184e-06
7.541053294240421e-06   -1.948504989344868e-07   -3.899709472846184e-06
7.541053294240421e-06   -1.948504989344868e-07   -3.899709472846184e-06
-1.1122161246849367e-05   1.4114596980913814e-06   -7.44779785802042e-06
-1.1122161246849367e-05   1.4114596980913814e-06   -7.44779785802042e-06
-1.1122161246849367e-05   1.4114596980913814e-06   -7.44779785802042e-06
-1.1122161246849367e-05   1.4114596980913814e-06   -7.44779785802042e-06