<?xml version="1.0"?> 
<VTKFile type="UnstructuredGrid"> 
   <UnstructuredGrid> 
      <Piece NumberOfPoints="6000"  NumberOfCells="1500">  
          <Points>  
             <DataArray type="Float64" NumberOfComponents="3" format="ascii">   
-500.0   0.0   0.0
-450.0   0.0   0.0
-500.0   30.0   0.0
-500.0   0.0   16.666666666666668
-450.0   0.0   0.0
-450.0   30.0   0.0
-500.0   30.0   0.0
-450.0   30.0   16.666666666666668
-500.0   0.0   16.666666666666668
-500.0   30.0   16.666666666666668
-450.0   30.0   16.666666666666668
-500.0   30.0   0.0
-500.0   0.0   16.666666666666668
-450.0   30.0   16.666666666666668
-450.0   0.0   16.666666666666668
-450.0   0.0   0.0
-500.0   0.0   16.666666666666668
-450.0   30.0   16.666666666666668
-450.0   0.0   0.0
-500.0   30.0   0.0
-500.0   0.0   16.666666666666668
-450.0   0.0   16.666666666666668
-500.0   30.0   16.666666666666668
-500.0   0.0   33.333333333333336
-450.0   0.0   16.666666666666668
-450.0   30.0   16.666666666666668
-500.0   30.0   16.666666666666668
-450.0   30.0   33.333333333333336
-500.0   0.0   33.333333333333336
-500.0   30.0   33.333333333333336
-450.0   30.0   33.333333333333336
-500.0   30.0   16.666666666666668
-500.0   0.0   33.333333333333336
-450.0   30.0   33.333333333333336
-450.0   0.0   33.333333333333336
-450.0   0.0   16.666666666666668
-500.0   0.0   33.333333333333336
-450.0   30.0   33.333333333333336
-450.0   0.0   16.666666666666668
-500.0   30.0   16.666666666666668
-500.0   0.0   33.333333333333336
-450.0   0.0   33.333333333333336
-500.0   30.0   33.333333333333336
-500.0   0.0   50.0
-450.0   0.0   33.333333333333336
-450.0   30.0   33.333333333333336
-500.0   30.0   33.333333333333336
-450.0   30.0   50.0
-500.0   0.0   50.0
-500.0   30.0   50.0
-450.0   30.0   50.0
-500.0   30.0   33.333333333333336
-500.0   0.0   50.0
-450.0   30.0   50.0
-450.0   0.0   50.0
-450.0   0.0   33.333333333333336
-500.0   0.0   50.0
-450.0   30.0   50.0
-450.0   0.0   33.333333333333336
-500.0   30.0   33.333333333333336
-500.0   30.0   0.0
-450.0   30.0   0.0
-500.0   60.0   0.0
-500.0   30.0   16.666666666666668
-450.0   30.0   0.0
-450.0   60.0   0.0
-500.0   60.0   0.0
-450.0   60.0   16.666666666666668
-500.0   30.0   16.666666666666668
-500.0   60.0   16.666666666666668
-450.0   60.0   16.666666666666668
-500.0   60.0   0.0
-500.0   30.0   16.666666666666668
-450.0   60.0   16.666666666666668
-450.0   30.0   16.666666666666668
-450.0   30.0   0.0
-500.0   30.0   16.666666666666668
-450.0   60.0   16.666666666666668
-450.0   30.0   0.0
-500.0   60.0   0.0
-500.0   30.0   16.666666666666668
-450.0   30.0   16.666666666666668
-500.0   60.0   16.666666666666668
-500.0   30.0   33.333333333333336
-450.0   30.0   16.666666666666668
-450.0   60.0   16.666666666666668
-500.0   60.0   16.666666666666668
-450.0   60.0   33.333333333333336
-500.0   30.0   33.333333333333336
-500.0   60.0   33.333333333333336
-450.0   60.0   33.333333333333336
-500.0   60.0   16.666666666666668
-500.0   30.0   33.333333333333336
-450.0   60.0   33.333333333333336
-450.0   30.0   33.333333333333336
-450.0   30.0   16.666666666666668
-500.0   30.0   33.333333333333336
-450.0   60.0   33.333333333333336
-450.0   30.0   16.666666666666668
-500.0   60.0   16.666666666666668
-500.0   30.0   33.333333333333336
-450.0   30.0   33.333333333333336
-500.0   60.0   33.333333333333336
-500.0   30.0   50.0
-450.0   30.0   33.333333333333336
-450.0   60.0   33.333333333333336
-500.0   60.0   33.333333333333336
-450.0   60.0   50.0
-500.0   30.0   50.0
-500.0   60.0   50.0
-450.0   60.0   50.0
-500.0   60.0   33.333333333333336
-500.0   30.0   50.0
-450.0   60.0   50.0
-450.0   30.0   50.0
-450.0   30.0   33.333333333333336
-500.0   30.0   50.0
-450.0   60.0   50.0
-450.0   30.0   33.333333333333336
-500.0   60.0   33.333333333333336
-500.0   60.0   0.0
-450.0   60.0   0.0
-500.0   90.0   0.0
-500.0   60.0   16.666666666666668
-450.0   60.0   0.0
-450.0   90.0   0.0
-500.0   90.0   0.0
-450.0   90.0   16.666666666666668
-500.0   60.0   16.666666666666668
-500.0   90.0   16.666666666666668
-450.0   90.0   16.666666666666668
-500.0   90.0   0.0
-500.0   60.0   16.666666666666668
-450.0   90.0   16.666666666666668
-450.0   60.0   16.666666666666668
-450.0   60.0   0.0
-500.0   60.0   16.666666666666668
-450.0   90.0   16.666666666666668
-450.0   60.0   0.0
-500.0   90.0   0.0
-500.0   60.0   16.666666666666668
-450.0   60.0   16.666666666666668
-500.0   90.0   16.666666666666668
-500.0   60.0   33.333333333333336
-450.0   60.0   16.666666666666668
-450.0   90.0   16.666666666666668
-500.0   90.0   16.666666666666668
-450.0   90.0   33.333333333333336
-500.0   60.0   33.333333333333336
-500.0   90.0   33.333333333333336
-450.0   90.0   33.333333333333336
-500.0   90.0   16.666666666666668
-500.0   60.0   33.333333333333336
-450.0   90.0   33.333333333333336
-450.0   60.0   33.333333333333336
-450.0   60.0   16.666666666666668
-500.0   60.0   33.333333333333336
-450.0   90.0   33.333333333333336
-450.0   60.0   16.666666666666668
-500.0   90.0   16.666666666666668
-500.0   60.0   33.333333333333336
-450.0   60.0   33.333333333333336
-500.0   90.0   33.333333333333336
-500.0   60.0   50.0
-450.0   60.0   33.333333333333336
-450.0   90.0   33.333333333333336
-500.0   90.0   33.333333333333336
-450.0   90.0   50.0
-500.0   60.0   50.0
-500.0   90.0   50.0
-450.0   90.0   50.0
-500.0   90.0   33.333333333333336
-500.0   60.0   50.0
-450.0   90.0   50.0
-450.0   60.0   50.0
-450.0   60.0   33.333333333333336
-500.0   60.0   50.0
-450.0   90.0   50.0
-450.0   60.0   33.333333333333336
-500.0   90.0   33.333333333333336
-500.0   90.0   0.0
-450.0   90.0   0.0
-500.0   120.0   0.0
-500.0   90.0   16.666666666666668
-450.0   90.0   0.0
-450.0   120.0   0.0
-500.0   120.0   0.0
-450.0   120.0   16.666666666666668
-500.0   90.0   16.666666666666668
-500.0   120.0   16.666666666666668
-450.0   120.0   16.666666666666668
-500.0   120.0   0.0
-500.0   90.0   16.666666666666668
-450.0   120.0   16.666666666666668
-450.0   90.0   16.666666666666668
-450.0   90.0   0.0
-500.0   90.0   16.666666666666668
-450.0   120.0   16.666666666666668
-450.0   90.0   0.0
-500.0   120.0   0.0
-500.0   90.0   16.666666666666668
-450.0   90.0   16.666666666666668
-500.0   120.0   16.666666666666668
-500.0   90.0   33.333333333333336
-450.0   90.0   16.666666666666668
-450.0   120.0   16.666666666666668
-500.0   120.0   16.666666666666668
-450.0   120.0   33.333333333333336
-500.0   90.0   33.333333333333336
-500.0   120.0   33.333333333333336
-450.0   120.0   33.333333333333336
-500.0   120.0   16.666666666666668
-500.0   90.0   33.333333333333336
-450.0   120.0   33.333333333333336
-450.0   90.0   33.333333333333336
-450.0   90.0   16.666666666666668
-500.0   90.0   33.333333333333336
-450.0   120.0   33.333333333333336
-450.0   90.0   16.666666666666668
-500.0   120.0   16.666666666666668
-500.0   90.0   33.333333333333336
-450.0   90.0   33.333333333333336
-500.0   120.0   33.333333333333336
-500.0   90.0   50.0
-450.0   90.0   33.333333333333336
-450.0   120.0   33.333333333333336
-500.0   120.0   33.333333333333336
-450.0   120.0   50.0
-500.0   90.0   50.0
-500.0   120.0   50.0
-450.0   120.0   50.0
-500.0   120.0   33.333333333333336
-500.0   90.0   50.0
-450.0   120.0   50.0
-450.0   90.0   50.0
-450.0   90.0   33.333333333333336
-500.0   90.0   50.0
-450.0   120.0   50.0
-450.0   90.0   33.333333333333336
-500.0   120.0   33.333333333333336
-500.0   120.0   0.0
-450.0   120.0   0.0
-500.0   150.0   0.0
-500.0   120.0   16.666666666666668
-450.0   120.0   0.0
-450.0   150.0   0.0
-500.0   150.0   0.0
-450.0   150.0   16.666666666666668
-500.0   120.0   16.666666666666668
-500.0   150.0   16.666666666666668
-450.0   150.0   16.666666666666668
-500.0   150.0   0.0
-500.0   120.0   16.666666666666668
-450.0   150.0   16.666666666666668
-450.0   120.0   16.666666666666668
-450.0   120.0   0.0
-500.0   120.0   16.666666666666668
-450.0   150.0   16.666666666666668
-450.0   120.0   0.0
-500.0   150.0   0.0
-500.0   120.0   16.666666666666668
-450.0   120.0   16.666666666666668
-500.0   150.0   16.666666666666668
-500.0   120.0   33.333333333333336
-450.0   120.0   16.666666666666668
-450.0   150.0   16.666666666666668
-500.0   150.0   16.666666666666668
-450.0   150.0   33.333333333333336
-500.0   120.0   33.333333333333336
-500.0   150.0   33.333333333333336
-450.0   150.0   33.333333333333336
-500.0   150.0   16.666666666666668
-500.0   120.0   33.333333333333336
-450.0   150.0   33.333333333333336
-450.0   120.0   33.333333333333336
-450.0   120.0   16.666666666666668
-500.0   120.0   33.333333333333336
-450.0   150.0   33.333333333333336
-450.0   120.0   16.666666666666668
-500.0   150.0   16.666666666666668
-500.0   120.0   33.333333333333336
-450.0   120.0   33.333333333333336
-500.0   150.0   33.333333333333336
-500.0   120.0   50.0
-450.0   120.0   33.333333333333336
-450.0   150.0   33.333333333333336
-500.0   150.0   33.333333333333336
-450.0   150.0   50.0
-500.0   120.0   50.0
-500.0   150.0   50.0
-450.0   150.0   50.0
-500.0   150.0   33.333333333333336
-500.0   120.0   50.0
-450.0   150.0   50.0
-450.0   120.0   50.0
-450.0   120.0   33.333333333333336
-500.0   120.0   50.0
-450.0   150.0   50.0
-450.0   120.0   33.333333333333336
-500.0   150.0   33.333333333333336
-450.0   0.0   0.0
-400.0   0.0   0.0
-450.0   30.0   0.0
-450.0   0.0   16.666666666666668
-400.0   0.0   0.0
-400.0   30.0   0.0
-450.0   30.0   0.0
-400.0   30.0   16.666666666666668
-450.0   0.0   16.666666666666668
-450.0   30.0   16.666666666666668
-400.0   30.0   16.666666666666668
-450.0   30.0   0.0
-450.0   0.0   16.666666666666668
-400.0   30.0   16.666666666666668
-400.0   0.0   16.666666666666668
-400.0   0.0   0.0
-450.0   0.0   16.666666666666668
-400.0   30.0   16.666666666666668
-400.0   0.0   0.0
-450.0   30.0   0.0
-450.0   0.0   16.666666666666668
-400.0   0.0   16.666666666666668
-450.0   30.0   16.666666666666668
[...]
          <PointData>  
             <DataArray type="Float64" NumberOfComponents="3" Name="Strains" format="ascii">   
-0.00010063189759967668   0.0   -6.602799002685506e-05
-0.00010063189759967668   0.0   -6.602799002685506e-05
-0.00010063189759967668   0.0   -6.602799002685506e-05
-0.00010063189759967668   0.0   -6.602799002685506e-05
-6.403569818432658e-05   1.1150327294092436e-05   1.6558720418504162e-06
-6.403569818432658e-05   1.1150327294092436e-05   1.6558720418504162e-06
-6.403569818432658e-05   1.1150327294092436e-05   1.6558720418504162e-06
-6.403569818432658e-05   1.1150327294092436e-05   1.6558720418504162e-06
-6.277061967548852e-05   0.0   -6.231517048247373e-05
-6.277061967548852e-05   0.0   -6.231517048247373e-05
-6.277061967548852e-05   0.0   -6.231517048247373e-05
-6.277061967548852e-05   0.0   -6.231517048247373e-05
-0.00010531770089546341   1.3379890609270667e-05   5.686971852555977e-07
-0.00010531770089546341   1.3379890609270667e-05   5.686971852555977e-07
-0.00010531770089546341   1.3379890609270667e-05   5.686971852555977e-07
-0.00010531770089546341   1.3379890609270667e-05   5.686971852555977e-07
-8.170125863758246e-05   3.0940162869844373e-06   -3.2620515317840865e-05
-8.170125863758246e-05   3.0940162869844373e-06   -3.2620515317840865e-05
-8.170125863758246e-05   3.0940162869844373e-06   -3.2620515317840865e-05
-8.170125863758246e-05   3.0940162869844373e-06   -3.2620515317840865e-05
-0.00010531770089546358   0.0   -7.034310484803615e-05
-0.00010531770089546358   0.0   -7.034310484803615e-05
-0.00010531770089546358   0.0   -7.034310484803615e-05
-0.00010531770089546358   0.0   -7.034310484803615e-05
-6.277061967548852e-05   1.3379890609270694e-05   8.596631550818014e-06
-6.277061967548852e-05   1.3379890609270694e-05   8.596631550818014e-06
-6.277061967548852e-05   1.3379890609270694e-05   8.596631550818014e-06
-6.277061967548852e-05   1.3379890609270694e-05   8.596631550818014e-06
-6.294909331254612e-05   0.0   -6.384081701998007e-05
-6.294909331254612e-05   0.0   -6.384081701998007e-05
-6.294909331254612e-05   0.0   -6.384081701998007e-05
-6.294909331254612e-05   0.0   -6.384081701998007e-05
-0.00010860916001977543   1.433424419916393e-05   3.6587476392373826e-06
-0.00010860916001977543   1.433424419916393e-05   3.6587476392373826e-06
-0.00010860916001977543   1.433424419916393e-05   3.6587476392373826e-06
-0.00010860916001977543   1.433424419916393e-05   3.6587476392373826e-06
-8.413339710400471e-05   5.418573190046731e-06   -3.1784787948243476e-05
-8.413339710400471e-05   5.418573190046731e-06   -3.1784787948243476e-05
-8.413339710400471e-05   5.418573190046731e-06   -3.1784787948243476e-05
-8.413339710400471e-05   5.418573190046731e-06   -3.1784787948243476e-05
-0.00010860916001977562   0.0   -7.244136353947843e-05
-0.00010860916001977562   0.0   -7.244136353947843e-05
-0.00010860916001977562   0.0   -7.244136353947843e-05
-0.00010860916001977562   0.0   -7.244136353947843e-05
-6.294909331254612e-05   1.4334244199163957e-05   1.225929415873576e-05
-6.294909331254612e-05   1.4334244199163957e-05   1.225929415873576e-05
-6.294909331254612e-05   1.4334244199163957e-05   1.225929415873576e-05
-6.294909331254612e-05   1.4334244199163957e-05   1.225929415873576e-05
-6.291763973707586e-05   0.0   -6.423261878088678e-05
-6.291763973707586e-05   0.0   -6.423261878088678e-05
-6.291763973707586e-05   0.0   -6.423261878088678e-05
-6.291763973707586e-05   0.0   -6.423261878088678e-05
-0.00011569843139316373   1.6328730152992182e-05   1.3938129220797976e-05
-0.00011569843139316373   1.6328730152992182e-05   1.3938129220797976e-05
-0.00011569843139316373   1.6328730152992182e-05   1.3938129220797976e-05
-0.00011569843139316373   1.6328730152992182e-05   1.3938129220797976e-05
-8.576339987842559e-05   6.8406206321597145e-06   -3.026072425793274e-05
-8.576339987842559e-05   6.8406206321597145e-06   -3.026072425793274e-05
-8.576339987842559e-05   6.8406206321597145e-06   -3.026072425793274e-05
-8.576339987842559e-05   6.8406206321597145e-06   -3.026072425793274e-05
-6.403569818432668e-05   0.0   -5.9337793650399596e-05
-6.403569818432668e-05   0.0   -5.9337793650399596e-05
-6.403569818432668e-05   0.0   -5.9337793650399596e-05
-6.403569818432668e-05   0.0   -5.9337793650399596e-05
-2.9160527126992763e-05   4.089934337523415e-06   1.2414520476709468e-06
-2.9160527126992763e-05   4.089934337523415e-06   1.2414520476709468e-06
-2.9160527126992763e-05   4.089934337523415e-06   1.2414520476709468e-06
-2.9160527126992763e-05   4.089934337523415e-06   1.2414520476709468e-06
-2.8047595072740616e-05   0.0   -5.882193404067165e-05
-2.8047595072740616e-05   0.0   -5.882193404067165e-05
-2.8047595072740616e-05   0.0   -5.882193404067165e-05
-2.8047595072740616e-05   0.0   -5.882193404067165e-05
-6.277061967548852e-05   5.822060736336817e-06   -4.443462811227233e-06
-6.277061967548852e-05   5.822060736336817e-06   -4.443462811227233e-06
-6.277061967548852e-05   5.822060736336817e-06   -4.443462811227233e-06
-6.277061967548852e-05   5.822060736336817e-06   -4.443462811227233e-06
-4.604164662853357e-05   4.29883008106628e-07   -2.9089777919213826e-05
-4.604164662853357e-05   4.29883008106628e-07   -2.9089777919213826e-05
-4.604164662853357e-05   4.29883008106628e-07   -2.9089777919213826e-05
-4.604164662853357e-05   4.29883008106628e-07   -2.9089777919213826e-05
-6.277061967548846e-05   0.0   -6.231517048247368e-05
-6.277061967548846e-05   0.0   -6.231517048247368e-05
-6.277061967548846e-05   0.0   -6.231517048247368e-05
-6.277061967548846e-05   0.0   -6.231517048247368e-05
-2.8047595072740616e-05   5.822060736336817e-06   -9.502263694251471e-07
-2.8047595072740616e-05   5.822060736336817e-06   -9.502263694251471e-07
-2.8047595072740616e-05   5.822060736336817e-06   -9.502263694251471e-07
-2.8047595072740616e-05   5.822060736336817e-06   -9.502263694251471e-07
-2.7423130635194958e-05   0.0   -5.9560607740316573e-05
-2.7423130635194958e-05   0.0   -5.9560607740316573e-05
-2.7423130635194958e-05   0.0   -5.9560607740316573e-05
-2.7423130635194958e-05   0.0   -5.9560607740316573e-05
-6.294909331254612e-05   7.133682132772496e-06   -4.630879224394816e-06
-6.294909331254612e-05   7.133682132772496e-06   -4.630879224394816e-06
-6.294909331254612e-05   7.133682132772496e-06   -4.630879224394816e-06
-6.294909331254612e-05   7.133682132772496e-06   -4.630879224394816e-06
-4.5096875155341645e-05   2.295468951797639e-06   -3.1481648244483746e-05
-4.5096875155341645e-05   2.295468951797639e-06   -3.1481648244483746e-05
-4.5096875155341645e-05   2.295468951797639e-06   -3.1481648244483746e-05
-4.5096875155341645e-05   2.295468951797639e-06   -3.1481648244483746e-05
-6.294909331254612e-05   0.0   -6.384081701998007e-05
-6.294909331254612e-05   0.0   -6.384081701998007e-05
-6.294909331254612e-05   0.0   -6.384081701998007e-05
-6.294909331254612e-05   0.0   -6.384081701998007e-05
-2.7423130635194958e-05   7.133682132772496e-06   -3.506699447313182e-07
-2.7423130635194958e-05   7.133682132772496e-06   -3.506699447313182e-07
-2.7423130635194958e-05   7.133682132772496e-06   -3.506699447313182e-07
-2.7423130635194958e-05   7.133682132772496e-06   -3.506699447313182e-07
-2.6854746281388192e-05   0.0   -5.925230201395896e-05
-2.6854746281388192e-05   0.0   -5.925230201395896e-05
-2.6854746281388192e-05   0.0   -5.925230201395896e-05
-2.6854746281388192e-05   0.0   -5.925230201395896e-05
-6.29176397370757e-05   8.300527944879585e-06   -4.127796354740638e-06
-6.29176397370757e-05   8.300527944879585e-06   -4.127796354740638e-06
-6.29176397370757e-05   8.300527944879585e-06   -4.127796354740638e-06
-6.29176397370757e-05   8.300527944879585e-06   -4.127796354740638e-06
-4.4901919796967144e-05   3.823762505017548e-06   -3.146793699100457e-05
-4.4901919796967144e-05   3.823762505017548e-06   -3.146793699100457e-05
-4.4901919796967144e-05   3.823762505017548e-06   -3.146793699100457e-05
-4.4901919796967144e-05   3.823762505017548e-06   -3.146793699100457e-05
-2.9160527126992814e-05   0.0   -5.688383304788555e-05
-2.9160527126992814e-05   0.0   -5.688383304788555e-05
-2.9160527126992814e-05   0.0   -5.688383304788555e-05
-2.9160527126992814e-05   0.0   -5.688383304788555e-05
3.7911967136126175e-06   -5.236549873281228e-07   -2.2784863059399796e-06
3.7911967136126175e-06   -5.236549873281228e-07   -2.2784863059399796e-06
3.7911967136126175e-06   -5.236549873281228e-07   -2.2784863059399796e-06
3.7911967136126175e-06   -5.236549873281228e-07   -2.2784863059399796e-06
4.500907538903192e-06   0.0   -5.820271880977364e-05
4.500907538903192e-06   0.0   -5.820271880977364e-05
4.500907538903192e-06   0.0   -5.820271880977364e-05
4.500907538903192e-06   0.0   -5.820271880977364e-05
-2.8047595072740616e-05   1.0320253848296681e-06   -4.574429687931951e-06
-2.8047595072740616e-05   1.0320253848296681e-06   -4.574429687931951e-06
-2.8047595072740616e-05   1.0320253848296681e-06   -4.574429687931951e-06
-2.8047595072740616e-05   1.0320253848296681e-06   -4.574429687931951e-06
-1.2329809794044782e-05   -1.0990714682402453e-06   -2.9492080373916274e-05
-1.2329809794044782e-05   -1.0990714682402453e-06   -2.9492080373916274e-05
-1.2329809794044782e-05   -1.0990714682402453e-06   -2.9492080373916274e-05
-1.2329809794044782e-05   -1.0990714682402453e-06   -2.9492080373916274e-05
-2.8047595072740616e-05   0.0   -5.882193404067165e-05
-2.8047595072740616e-05   0.0   -5.882193404067165e-05
-2.8047595072740616e-05   0.0   -5.882193404067165e-05
-2.8047595072740616e-05   0.0   -5.882193404067165e-05
4.5009075389032e-06   1.0320253848296681e-06   -3.955214457034133e-06
4.5009075389032e-06   1.0320253848296681e-06   -3.955214457034133e-06
4.5009075389032e-06   1.0320253848296681e-06   -3.955214457034133e-06
4.5009075389032e-06   1.0320253848296681e-06   -3.955214457034133e-06
5.060864738226731e-06   0.0   -5.811956234458752e-05
5.060864738226731e-06   0.0   -5.811956234458752e-05
5.060864738226731e-06   0.0   -5.811956234458752e-05
5.060864738226731e-06   0.0   -5.811956234458752e-05
-2.742313063519491e-05   2.401742326214908e-06   -5.420615451280406e-06
-2.742313063519491e-05   2.401742326214908e-06   -5.420615451280406e-06
-2.742313063519491e-05   2.401742326214908e-06   -5.420615451280406e-06
-2.742313063519491e-05   2.401742326214908e-06   -5.420615451280406e-06
-1.1493365167256938e-05   5.853097467366846e-07   -3.0880365016823485e-05
-1.1493365167256938e-05   5.853097467366846e-07   -3.0880365016823485e-05
-1.1493365167256938e-05   5.853097467366846e-07   -3.0880365016823485e-05
-1.1493365167256938e-05   5.853097467366846e-07   -3.0880365016823485e-05
-2.7423130635194958e-05   0.0   -5.9560607740316573e-05
-2.7423130635194958e-05   0.0   -5.9560607740316573e-05
-2.7423130635194958e-05   0.0   -5.9560607740316573e-05
-2.7423130635194958e-05   0.0   -5.9560607740316573e-05
5.06086473822674e-06   2.401742326214908e-06   -3.979570055551466e-06
5.06086473822674e-06   2.401742326214908e-06   -3.979570055551466e-06
5.06086473822674e-06   2.401742326214908e-06   -3.979570055551466e-06
5.06086473822674e-06   2.401742326214908e-06   -3.979570055551466e-06
5.814770956452792e-06   0.0   -5.685931613002687e-05
5.814770956452792e-06   0.0   -5.685931613002687e-05
5.814770956452792e-06   0.0   -5.685931613002687e-05
5.814770956452792e-06   0.0   -5.685931613002687e-05
-2.6854746281388168e-05   3.9883098065533935e-06   -4.803106617557313e-06
-2.6854746281388168e-05   3.9883098065533935e-06   -4.803106617557313e-06
-2.6854746281388168e-05   3.9883098065533935e-06   -4.803106617557313e-06
-2.6854746281388168e-05   3.9883098065533935e-06   -4.803106617557313e-06
-1.080417983937106e-05   2.2510763419079905e-06   -3.0511710608798567e-05
-1.080417983937106e-05   2.2510763419079905e-06   -3.0511710608798567e-05
-1.080417983937106e-05   2.2510763419079905e-06   -3.0511710608798567e-05
-1.080417983937106e-05   2.2510763419079905e-06   -3.0511710608798567e-05
3.791196713612624e-06   0.0   -5.719802604028242e-05
3.791196713612624e-06   0.0   -5.719802604028242e-05
3.791196713612624e-06   0.0   -5.719802604028242e-05
3.791196713612624e-06   0.0   -5.719802604028242e-05
3.955856125895215e-05   -4.639807544520045e-06   -3.6963632476186704e-07
3.955856125895215e-05   -4.639807544520045e-06   -3.6963632476186704e-07
3.955856125895215e-05   -4.639807544520045e-06   -3.6963632476186704e-07
3.955856125895215e-05   -4.639807544520045e-06   -3.6963632476186704e-07
3.962647778345033e-05   0.0   -6.030164446848812e-05
3.962647778345033e-05   0.0   -6.030164446848812e-05
3.962647778345033e-05   0.0   -6.030164446848812e-05
3.962647778345033e-05   0.0   -6.030164446848812e-05
4.500907538903208e-06   -3.498209431190461e-06   3.398982644713615e-07
4.500907538903208e-06   -3.498209431190461e-06   3.398982644713615e-07
4.500907538903208e-06   -3.498209431190461e-06   3.398982644713615e-07
4.500907538903208e-06   -3.498209431190461e-06   3.398982644713615e-07
2.1708837248531477e-05   -2.586348690171421e-06   -2.888710102952049e-05
2.1708837248531477e-05   -2.586348690171421e-06   -2.888710102952049e-05
2.1708837248531477e-05   -2.586348690171421e-06   -2.888710102952049e-05
2.1708837248531477e-05   -2.586348690171421e-06   -2.888710102952049e-05
4.500907538903208e-06   0.0   -5.8202718809773845e-05
4.500907538903208e-06   0.0   -5.8202718809773845e-05
4.500907538903208e-06   0.0   -5.8202718809773845e-05
4.500907538903208e-06   0.0   -5.8202718809773845e-05
3.962647778345033e-05   -3.498209431190461e-06   -1.7590273942429151e-06
3.962647778345033e-05   -3.498209431190461e-06   -1.7590273942429151e-06
3.962647778345033e-05   -3.498209431190461e-06   -1.7590273942429151e-06
3.962647778345033e-05   -3.498209431190461e-06   -1.7590273942429151e-06
3.945467328914657e-05   0.0   -5.9440542378523164e-05
3.945467328914657e-05   0.0   -5.9440542378523164e-05
3.945467328914657e-05   0.0   -5.9440542378523164e-05
3.945467328914657e-05   0.0   -5.9440542378523164e-05
5.06086473822674e-06   -2.2016333898925653e-06   -7.965480930545919e-07
5.06086473822674e-06   -2.2016333898925653e-06   -7.965480930545919e-07
5.06086473822674e-06   -2.2016333898925653e-06   -7.965480930545919e-07
5.06086473822674e-06   -2.2016333898925653e-06   -7.965480930545919e-07
2.1977790414024888e-05   -1.0315196406244321e-06   -2.9693492468945687e-05
2.1977790414024888e-05   -1.0315196406244321e-06   -2.9693492468945687e-05
2.1977790414024888e-05   -1.0315196406244321e-06   -2.9693492468945687e-05
2.1977790414024888e-05   -1.0315196406244321e-06   -2.9693492468945687e-05
5.060864738226735e-06   0.0   -5.8119562344587566e-05
5.060864738226735e-06   0.0   -5.8119562344587566e-05
5.060864738226735e-06   0.0   -5.8119562344587566e-05
5.060864738226735e-06   0.0   -5.8119562344587566e-05
3.945467328914657e-05   -2.2016333898925653e-06   -2.1175281269901318e-06
3.945467328914657e-05   -2.2016333898925653e-06   -2.1175281269901318e-06
3.945467328914657e-05   -2.2016333898925653e-06   -2.1175281269901318e-06
3.945467328914657e-05   -2.2016333898925653e-06   -2.1175281269901318e-06
4.0216783342155474e-05   0.0   -5.71348345267979e-05
4.0216783342155474e-05   0.0   -5.71348345267979e-05
4.0216783342155474e-05   0.0   -5.71348345267979e-05
4.0216783342155474e-05   0.0   -5.71348345267979e-05
5.8147709564528025e-06   -4.591973279515491e-07   4.773711794774577e-07
5.8147709564528025e-06   -4.591973279515491e-07   4.773711794774577e-07
5.8147709564528025e-06   -4.591973279515491e-07   4.773711794774577e-07
5.8147709564528025e-06   -4.591973279515491e-07   4.773711794774577e-07
2.2638824040191086e-05   8.206065148247686e-07   -2.8330599599085438e-05
2.2638824040191086e-05   8.206065148247686e-07   -2.8330599599085438e-05
2.2638824040191086e-05   8.206065148247686e-07   -2.8330599599085438e-05
2.2638824040191086e-05   8.206065148247686e-07   -2.8330599599085438e-05
3.955856125895215e-05   0.0   -5.998191056699445e-05
3.955856125895215e-05   0.0   -5.998191056699445e-05
3.955856125895215e-05   0.0   -5.998191056699445e-05
3.955856125895215e-05   0.0   -5.998191056699445e-05
8.929627765712684e-05   -1.1760259147572497e-05   1.585812794142034e-05
8.929627765712684e-05   -1.1760259147572497e-05   1.585812794142034e-05
8.929627765712684e-05   -1.1760259147572497e-05   1.585812794142034e-05
8.929627765712684e-05   -1.1760259147572497e-05   1.585812794142034e-05
8.38604649969506e-05   0.0   -6.630607853841641e-05
8.38604649969506e-05   0.0   -6.630607853841641e-05
8.38604649969506e-05   0.0   -6.630607853841641e-05
8.38604649969506e-05   0.0   -6.630607853841641e-05
3.962647778345033e-05   -1.0007390116547154e-05   1.3421667554012304e-05
3.962647778345033e-05   -1.0007390116547154e-05   1.3421667554012304e-05
3.962647778345033e-05   -1.0007390116547154e-05   1.3421667554012304e-05
3.962647778345033e-05   -1.0007390116547154e-05   1.3421667554012304e-05
6.170951312795137e-05   -5.270139976184976e-06   -2.6225741437706702e-05
6.170951312795137e-05   -5.270139976184976e-06   -2.6225741437706702e-05
6.170951312795137e-05   -5.270139976184976e-06   -2.6225741437706702e-05
6.170951312795137e-05   -5.270139976184976e-06   -2.6225741437706702e-05
3.96264777834503e-05   0.0   -6.030164446848807e-05
3.96264777834503e-05   0.0   -6.030164446848807e-05
3.96264777834503e-05   0.0   -6.030164446848807e-05
3.96264777834503e-05   0.0   -6.030164446848807e-05
8.386046499695031e-05   -1.0007390116547113e-05   7.417233484083996e-06
8.386046499695031e-05   -1.0007390116547113e-05   7.417233484083996e-06
8.386046499695031e-05   -1.0007390116547113e-05   7.417233484083996e-06
8.386046499695031e-05   -1.0007390116547113e-05   7.417233484083996e-06
8.135285038237124e-05   0.0   -6.492751596793001e-05
8.135285038237124e-05   0.0   -6.492751596793001e-05
8.135285038237124e-05   0.0   -6.492751596793001e-05
8.135285038237124e-05   0.0   -6.492751596793001e-05
3.945467328914657e-05   -9.144955982344751e-06   1.0389752776851282e-05
3.945467328914657e-05   -9.144955982344751e-06   1.0389752776851282e-05
3.945467328914657e-05   -9.144955982344751e-06   1.0389752776851282e-05
3.945467328914657e-05   -9.144955982344751e-06   1.0389752776851282e-05
6.0489664082910756e-05   -3.854892916201577e-06   -2.7842603052441604e-05
6.0489664082910756e-05   -3.854892916201577e-06   -2.7842603052441604e-05
6.0489664082910756e-05   -3.854892916201577e-06   -2.7842603052441604e-05
6.0489664082910756e-05   -3.854892916201577e-06   -2.7842603052441604e-05
3.945467328914657e-05   0.0   -5.9440542378523164e-05
3.945467328914657e-05   0.0   -5.9440542378523164e-05
3.945467328914657e-05   0.0   -5.9440542378523164e-05
3.945467328914657e-05   0.0   -5.9440542378523164e-05
8.135285038237096e-05   -9.144955982344724e-06   4.902779187444426e-06
8.135285038237096e-05   -9.144955982344724e-06   4.902779187444426e-06
8.135285038237096e-05   -9.144955982344724e-06   4.902779187444426e-06
8.135285038237096e-05   -9.144955982344724e-06   4.902779187444426e-06
7.762117838159351e-05   0.0   -6.140034601265004e-05
7.762117838159351e-05   0.0   -6.140034601265004e-05
7.762117838159351e-05   0.0   -6.140034601265004e-05
7.762117838159351e-05   0.0   -6.140034601265004e-05
4.0216783342155474e-05   -7.1091858097537485e-06   5.205823872265713e-06
4.0216783342155474e-05   -7.1091858097537485e-06   5.205823872265713e-06
4.0216783342155474e-05   -7.1091858097537485e-06   5.205823872265713e-06
4.0216783342155474e-05   -7.1091858097537485e-06   5.205823872265713e-06
5.8537925835370106e-05   -1.633169695105823e-06   -2.8615023285214058e-05
5.8537925835370106e-05   -1.633169695105823e-06   -2.8615023285214058e-05
5.8537925835370106e-05   -1.633169695105823e-06   -2.8615023285214058e-05
5.8537925835370106e-05   -1.633169695105823e-06   -2.8615023285214058e-05
-8.732498610903817e-05   1.1150327294092422e-05   -5.728523075408373e-05
-8.732498610903817e-05   1.1150327294092422e-05   -5.728523075408373e-05
-8.732498610903817e-05   1.1150327294092422e-05   -5.728523075408373e-05
-8.732498610903817e-05   1.1150327294092422e-05   -5.728523075408373e-05