<?xml version="1.0"?> 
<VTKFile type="UnstructuredGrid"> 
   <UnstructuredGrid> 
      <Piece NumberOfPoints="6000"  NumberOfCells="1500">  
          <Points>  
             <DataArray type="Float64" NumberOfComponents="3" format="ascii">   
-500.0   0.0   0.0
-450.0   0.0   0.0
-500.0   30.0   0.0
-500.0   0.0   16.666666666666668
-450.0   0.0   0.0
-450.0   30.0   0.0
-500.0   30.0   0.0
-450.0   30.0   16.666666666666668
-500.0   0.0   16.666666666666668
-500.0   30.0   16.666666666666668
-450.0   30.0   16.666666666666668
-500.0   30.0   0.0
-500.0   0.0   16.666666666666668
-450.0   30.0   16.666666666666668
-450.0   0.0   16.666666666666668
-450.0   0.0   0.0
-500.0   0.0   16.666666666666668
-450.0   30.0   16.666666666666668
-450.0   0.0   0.0
-500.0   30.0   0.0
-500.0   0.0   16.666666666666668
-450.0   0.0   16.666666666666668
-500.0   30.0   16.666666666666668
-500.0   0.0   33.333333333333336
-450.0   0.0   16.666666666666668
-450.0   30.0   16.666666666666668
-500.0   30.0   16.666666666666668
-450.0   30.0   33.333333333333336
-500.0   0.0   33.333333333333336
-500.0   30.0   33.333333333333336
-450.0   30.0   33.333333333333336
-500.0   30.0   16.666666666666668
-500.0   0.0   33.333333333333336
-450.0   30.0   33.333333333333336
-450.0   0.0   33.333333333333336
-450.0   0.0   16.666666666666668
-500.0   0.0   33.333333333333336
-450.0   30.0   33.333333333333336
-450.0   0.0   16.666666666666668
-500.0   30.0   16.666666666666668
-500.0   0.0   33.333333333333336
-450.0   0.0   33.333333333333336
-500.0   30.0   33.333333333333336
-500.0   0.0   50.0
-450.0   0.0   33.333333333333336
-450.0   30.0   33.333333333333336
-500.0   30.0   33.333333333333336
-450.0   30.0   50.0
-500.0   0.0   50.0
-500.0   30.0   50.0
-450.0   30.0   50.0
-500.0   30.0   33.333333333333336
-500.0   0.0   50.0
-450.0   30.0   50.0
-450.0   0.0   50.0
-450.0   0.0   33.333333333333336
-500.0   0.0   50.0
-450.0   30.0   50.0
-450.0   0.0   33.333333333333336
-500.0   30.0   33.333333333333336
-500.0   30.0   0.0
-450.0   30.0   0.0
-500.0   60.0   0.0
-500.0   30.0   16.666666666666668
-450.0   30.0   0.0
-450.0   60.0   0.0
-500.0   60.0   0.0
-450.0   60.0   16.666666666666668
-500.0   30.0   16.666666666666668
-500.0   60.0   16.666666666666668
-450.0   60.0   16.666666666666668
-500.0   60.0   0.0
-500.0   30.0   16.666666666666668
-450.0   60.0   16.666666666666668
-450.0   30.0   16.666666666666668
-450.0   30.0   0.0
-500.0   30.0   16.666666666666668
-450.0   60.0   16.666666666666668
-450.0   30.0   0.0
-500.0   60.0   0.0
-500.0   30.0   16.666666666666668
-450.0   30.0   16.666666666666668
-500.0   60.0   16.666666666666668
-500.0   30.0   33.333333333333336
-450.0   30.0   16.666666666666668
-450.0   60.0   16.666666666666668
-500.0   60.0   16.666666666666668
-450.0   60.0   33.333333333333336
-500.0   30.0   33.333333333333336
-500.0   60.0   33.333333333333336
-450.0   60.0   33.333333333333336
-500.0   60.0   16.666666666666668
-500.0   30.0   33.333333333333336
-450.0   60.0   33.333333333333336
-450.0   30.0   33.333333333333336
-450.0   30.0   16.666666666666668
-500.0   30.0   33.333333333333336
-450.0   60.0   33.333333333333336
-450.0   30.0   16.666666666666668
-500.0   60.0   16.666666666666668
-500.0   30.0   33.333333333333336
-450.0   30.0   33.333333333333336
-500.0   60.0   33.333333333333336
-500.0   30.0   50.0
-450.0   30.0   33.333333333333336
-450.0   60.0   33.333333333333336
-500.0   60.0   33.333333333333336
-450.0   60.0   50.0
-500.0   30.0   50.0
-500.0   60.0   50.0
-450.0   60.0   50.0
-500.0   60.0   33.333333333333336
-500.0   30.0   50.0
-450.0   60.0   50.0
-450.0   30.0   50.0
-450.0   30.0   33.333333333333336
-500.0   30.0   50.0
-450.0   60.0   50.0
-450.0   30.0   33.333333333333336
-500.0   60.0   33.333333333333336
-500.0   60.0   0.0
-450.0   60.0   0.0
-500.0   90.0   0.0
-500.0   60.0   16.666666666666668
-450.0   60.0   0.0
-450.0   90.0   0.0
-500.0   90.0   0.0
-450.0   90.0   16.666666666666668
-500.0   60.0   16.666666666666668
-500.0   90.0   16.666666666666668
-450.0   90.0   16.666666666666668
-500.0   90.0   0.0
-500.0   60.0   16.666666666666668
-450.0   90.0   16.666666666666668
-450.0   60.0   16.666666666666668
-450.0   60.0   0.0
-500.0   60.0   16.666666666666668
-450.0   90.0   16.666666666666668
-450.0   60.0   0.0
-500.0   90.0   0.0
-500.0   60.0   16.666666666666668
-450.0   60.0   16.666666666666668
-500.0   90.0   16.666666666666668
-500.0   60.0   33.333333333333336
-450.0   60.0   16.666666666666668
-450.0   90.0   16.666666666666668
-500.0   90.0   16.666666666666668
-450.0   90.0   33.333333333333336
-500.0   60.0   33.333333333333336
-500.0   90.0   33.333333333333336
-450.0   90.0   33.333333333333336
-500.0   90.0   16.666666666666668
-500.0   60.0   33.333333333333336
-450.0   90.0   33.333333333333336
-450.0   60.0   33.333333333333336
-450.0   60.0   16.666666666666668
-500.0   60.0   33.333333333333336
-450.0   90.0   33.333333333333336
-450.0   60.0   16.666666666666668
-500.0   90.0   16.666666666666668
-500.0   60.0   33.333333333333336
-450.0   60.0   33.333333333333336
-500.0   90.0   33.333333333333336
-500.0   60.0   50.0
-450.0   60.0   33.333333333333336
-450.0   90.0   33.333333333333336
-500.0   90.0   33.333333333333336
-450.0   90.0   50.0
-500.0   60.0   50.0
-500.0   90.0   50.0
-450.0   90.0   50.0
-500.0   90.0   33.333333333333336
-500.0   60.0   50.0
-450.0   90.0   50.0
-450.0   60.0   50.0
-450.0   60.0   33.333333333333336
-500.0   60.0   50.0
-450.0   90.0   50.0
-450.0   60.0   33.333333333333336
-500.0   90.0   33.333333333333336
-500.0   90.0   0.0
-450.0   90.0   0.0
-500.0   120.0   0.0
-500.0   90.0   16.666666666666668
-450.0   90.0   0.0
-450.0   120.0   0.0
-500.0   120.0   0.0
-450.0   120.0   16.666666666666668
-500.0   90.0   16.666666666666668
-500.0   120.0   16.666666666666668
-450.0   120.0   16.666666666666668
-500.0   120.0   0.0
-500.0   90.0   16.666666666666668
-450.0   120.0   16.666666666666668
-450.0   90.0   16.666666666666668
-450.0   90.0   0.0
-500.0   90.0   16.666666666666668
-450.0   120.0   16.666666666666668
-450.0   90.0   0.0
-500.0   120.0   0.0
-500.0   90.0   16.666666666666668
-450.0   90.0   16.666666666666668
-500.0   120.0   16.666666666666668
-500.0   90.0   33.333333333333336
-450.0   90.0   16.666666666666668
-450.0   120.0   16.666666666666668
-500.0   120.0   16.666666666666668
-450.0   120.0   33.333333333333336
-500.0   90.0   33.333333333333336
-500.0   120.0   33.333333333333336
-450.0   120.0   33.333333333333336
-500.0   120.0   16.666666666666668
-500.0   90.0   33.333333333333336
-450.0   120.0   33.333333333333336
-450.0   90.0   33.333333333333336
-450.0   90.0   16.666666666666668
-500.0   90.0   33.333333333333336
-450.0   120.0   33.333333333333336
-450.0   90.0   16.666666666666668
-500.0   120.0   16.666666666666668
-500.0   90.0   33.333333333333336
-450.0   90.0   33.333333333333336
-500.0   120.0   33.333333333333336
-500.0   90.0   50.0
-450.0   90.0   33.333333333333336
-450.0   120.0   33.333333333333336
-500.0   120.0   33.333333333333336
-450.0   120.0   50.0
-500.0   90.0   50.0
-500.0   120.0   50.0
-450.0   120.0   50.0
-500.0   120.0   33.333333333333336
-500.0   90.0   50.0
-450.0   120.0   50.0
-450.0   90.0   50.0
-450.0   90.0   33.333333333333336
-500.0   90.0   50.0
-450.0   120.0   50.0
-450.0   90.0   33.333333333333336
-500.0   120.0   33.333333333333336
-500.0   120.0   0.0
-450.0   120.0   0.0
-500.0   150.0   0.0
-500.0   120.0   16.666666666666668
-450.0   120.0   0.0
-450.0   150.0   0.0
-500.0   150.0   0.0
-450.0   150.0   16.666666666666668
-500.0   120.0   16.666666666666668
-500.0   150.0   16.666666666666668
-450.0   150.0   16.666666666666668
-500.0   150.0   0.0
-500.0   120.0   16.666666666666668
-450.0   150.0   16.666666666666668
-450.0   120.0   16.666666666666668
-450.0   120.0   0.0
-500.0   120.0   16.666666666666668
-450.0   150.0   16.666666666666668
-450.0   120.0   0.0
-500.0   150.0   0.0
-500.0   120.0   16.666666666666668
-450.0   120.0   16.666666666666668
-500.0   150.0   16.666666666666668
-500.0   120.0   33.333333333333336
-450.0   120.0   16.666666666666668
-450.0   150.0   16.666666666666668
-500.0   150.0   16.666666666666668
-450.0   150.0   33.333333333333336
-500.0   120.0   33.333333333333336
-500.0   150.0   33.333333333333336
-450.0   150.0   33.333333333333336
-500.0   150.0   16.666666666666668
-500.0   120.0   33.333333333333336
-450.0   150.0   33.333333333333336
-450.0   120.0   33.333333333333336
-450.0   120.0   16.666666666666668
-500.0   120.0   33.333333333333336
-450.0   150.0   33.333333333333336
-450.0   120.0   16.666666666666668
-500.0   150.0   16.666666666666668
-500.0   120.0   33.333333333333336
-450.0   120.0   33.333333333333336
-500.0   150.0   33.333333333333336
-500.0   120.0   50.0
-450.0   120.0   33.333333333333336
-450.0   150.0   33.333333333333336
-500.0   150.0   33.333333333333336
-450.0   150.0   50.0
-500.0   120.0   50.0
-500.0   150.0   50.0
-450.0   150.0   50.0
-500.0   150.0   33.333333333333336
-500.0   120.0   50.0
-450.0   150.0   50.0
-450.0   120.0   50.0
-450.0   120.0   33.333333333333336
-500.0   120.0   50.0
-450.0   150.0   50.0
-450.0   120.0   33.333333333333336
-500.0   150.0   33.333333333333336
-450.0   0.0   0.0
-400.0   0.0   0.0
-450.0   30.0   0.0
-450.0   0.0   16.666666666666668
-400.0   0.0   0.0
-400.0   30.0   0.0
-450.0   30.0   0.0
-400.0   30.0   16.666666666666668
-450.0   0.0   16.666666666666668
-450.0   30.0   16.666666666666668
-400.0   30.0   16.666666666666668
-450.0   30.0   0.0
-450.0   0.0   16.666666666666668
-400.0   30.0   16.666666666666668
-400.0   0.0   16.666666666666668
-400.0   0.0   0.0
-450.0   0.0   16.666666666666668
-400.0   30.0   16.666666666666668
-400.0   0.0   0.0
-450.0   30.0   0.0
-450.0   0.0   16.666666666666668
-400.0   0.0   16.666666666666668
-450.0   30.0   16.666666666666668
[...]
          <PointData>  
             <DataArray type="Float64" NumberOfComponents="3" Name="Strains" format="ascii">   
-0.00012566627725337843   0.0   -8.238872985365834e-05
-0.00012566627725337843   0.0   -8.238872985365834e-05
-0.00012566627725337843   0.0   -8.238872985365834e-05
-0.00012566627725337843   0.0   -8.238872985365834e-05
-7.997242082077998e-05   1.3932860892949892e-05   2.127414069775526e-06
-7.997242082077998e-05   1.3932860892949892e-05   2.127414069775526e-06
-7.997242082077998e-05   1.3932860892949892e-05   2.127414069775526e-06
-7.997242082077998e-05   1.3932860892949892e-05   2.127414069775526e-06
-7.839695842424408e-05   0.0   -7.774734525313703e-05
-7.839695842424408e-05   0.0   -7.774734525313703e-05
-7.839695842424408e-05   0.0   -7.774734525313703e-05
-7.839695842424408e-05   0.0   -7.774734525313703e-05
-0.0001315232909270076   1.6714681082323382e-05   7.677336020751521e-07
-0.0001315232909270076   1.6714681082323382e-05   7.677336020751521e-07
-0.0001315232909270076   1.6714681082323382e-05   7.677336020751521e-07
-0.0001315232909270076   1.6714681082323382e-05   7.677336020751521e-07
-0.00010203161783881108   3.867820500434409e-06   -4.067693852911895e-05
-0.00010203161783881108   3.867820500434409e-06   -4.067693852911895e-05
-0.00010203161783881108   3.867820500434409e-06   -4.067693852911895e-05
-0.00010203161783881108   3.867820500434409e-06   -4.067693852911895e-05
-0.00013152329092700783   0.0   -8.777615390253108e-05
-0.00013152329092700783   0.0   -8.777615390253108e-05
-0.00013152329092700783   0.0   -8.777615390253108e-05
-0.00013152329092700783   0.0   -8.777615390253108e-05
-7.839695842424408e-05   1.671468108232341e-05   1.0796542251469187e-05
-7.839695842424408e-05   1.671468108232341e-05   1.0796542251469187e-05
-7.839695842424408e-05   1.671468108232341e-05   1.0796542251469187e-05
-7.839695842424408e-05   1.671468108232341e-05   1.0796542251469187e-05
-7.862468381292929e-05   0.0   -7.965211219230062e-05
-7.862468381292929e-05   0.0   -7.965211219230062e-05
-7.862468381292929e-05   0.0   -7.965211219230062e-05
-7.862468381292929e-05   0.0   -7.965211219230062e-05
-0.00013563965890356792   1.7905773259718055e-05   4.6293823362665955e-06
-0.00013563965890356792   1.7905773259718055e-05   4.6293823362665955e-06
-0.00013563965890356792   1.7905773259718055e-05   4.6293823362665955e-06
-0.00013563965890356792   1.7905773259718055e-05   4.6293823362665955e-06
-0.00010507398736996838   6.770034758525381e-06   -3.963196045235029e-05
-0.00010507398736996838   6.770034758525381e-06   -3.963196045235029e-05
-0.00010507398736996838   6.770034758525381e-06   -3.963196045235029e-05
-0.00010507398736996838   6.770034758525381e-06   -3.963196045235029e-05
-0.00013563965890356816   0.0   -9.039557614813147e-05
-0.00013563965890356816   0.0   -9.039557614813147e-05
-0.00013563965890356816   0.0   -9.039557614813147e-05
-0.00013563965890356816   0.0   -9.039557614813147e-05
-7.862468381292929e-05   1.7905773259718083e-05   1.5372846292097478e-05
-7.862468381292929e-05   1.7905773259718083e-05   1.5372846292097478e-05
-7.862468381292929e-05   1.7905773259718083e-05   1.5372846292097478e-05
-7.862468381292929e-05   1.7905773259718083e-05   1.5372846292097478e-05
-7.859083316390414e-05   0.0   -8.014051551688157e-05
-7.859083316390414e-05   0.0   -8.014051551688157e-05
-7.859083316390414e-05   0.0   -8.014051551688157e-05
-7.859083316390414e-05   0.0   -8.014051551688157e-05
-0.0001445008679264038   2.0393697999184553e-05   1.747332362110748e-05
-0.0001445008679264038   2.0393697999184553e-05   1.747332362110748e-05
-0.0001445008679264038   2.0393697999184553e-05   1.747332362110748e-05
-0.0001445008679264038   2.0393697999184553e-05   1.747332362110748e-05
-0.00010711524603373597   8.545883859374911e-06   -3.772735771611976e-05
-0.00010711524603373597   8.545883859374911e-06   -3.772735771611976e-05
-0.00010711524603373597   8.545883859374911e-06   -3.772735771611976e-05
-0.00010711524603373597   8.545883859374911e-06   -3.772735771611976e-05
-7.997242082078012e-05   0.0   -7.40290133178884e-05
-7.997242082078012e-05   0.0   -7.40290133178884e-05
-7.997242082078012e-05   0.0   -7.40290133178884e-05
-7.997242082078012e-05   0.0   -7.40290133178884e-05
-3.641220336714332e-05   5.112234174995016e-06   1.6386896098365475e-06
-3.641220336714332e-05   5.112234174995016e-06   1.6386896098365475e-06
-3.641220336714332e-05   5.112234174995016e-06   1.6386896098365475e-06
-3.641220336714332e-05   5.112234174995016e-06   1.6386896098365475e-06
-3.502720595829124e-05   0.0   -7.338266513898981e-05
-3.502720595829124e-05   0.0   -7.338266513898981e-05
-3.502720595829124e-05   0.0   -7.338266513898981e-05
-3.502720595829124e-05   0.0   -7.338266513898981e-05
-7.839695842424408e-05   7.274466856912082e-06   -5.46442447654899e-06
-7.839695842424408e-05   7.274466856912082e-06   -5.46442447654899e-06
-7.839695842424408e-05   7.274466856912082e-06   -5.46442447654899e-06
-7.839695842424408e-05   7.274466856912082e-06   -5.46442447654899e-06
-5.749981338953558e-05   5.386234824154905e-07   -3.625149350969827e-05
-5.749981338953558e-05   5.386234824154905e-07   -3.625149350969827e-05
-5.749981338953558e-05   5.386234824154905e-07   -3.625149350969827e-05
-5.749981338953558e-05   5.386234824154905e-07   -3.625149350969827e-05
-7.839695842424401e-05   0.0   -7.774734525313697e-05
-7.839695842424401e-05   0.0   -7.774734525313697e-05
-7.839695842424401e-05   0.0   -7.774734525313697e-05
-7.839695842424401e-05   0.0   -7.774734525313697e-05
-3.502720595829124e-05   7.274466856912082e-06   -1.0997443624017448e-06
-3.502720595829124e-05   7.274466856912082e-06   -1.0997443624017448e-06
-3.502720595829124e-05   7.274466856912082e-06   -1.0997443624017448e-06
-3.502720595829124e-05   7.274466856912082e-06   -1.0997443624017448e-06
-3.425205980279732e-05   0.0   -7.430518708936502e-05
-3.425205980279732e-05   0.0   -7.430518708936502e-05
-3.425205980279732e-05   0.0   -7.430518708936502e-05
-3.425205980279732e-05   0.0   -7.430518708936502e-05
-7.862468381292929e-05   8.91154183822599e-06   -5.69773884208068e-06
-7.862468381292929e-05   8.91154183822599e-06   -5.69773884208068e-06
-7.862468381292929e-05   8.91154183822599e-06   -5.69773884208068e-06
-7.862468381292929e-05   8.91154183822599e-06   -5.69773884208068e-06
-5.6324509113520586e-05   2.868465136476685e-06   -3.9238850653378594e-05
-5.6324509113520586e-05   2.868465136476685e-06   -3.9238850653378594e-05
-5.6324509113520586e-05   2.868465136476685e-06   -3.9238850653378594e-05
-5.6324509113520586e-05   2.868465136476685e-06   -3.9238850653378594e-05
-7.862468381292929e-05   0.0   -7.965211219230062e-05
-7.862468381292929e-05   0.0   -7.965211219230062e-05
-7.862468381292929e-05   0.0   -7.965211219230062e-05
-7.862468381292929e-05   0.0   -7.965211219230062e-05
-3.425205980279732e-05   8.91154183822599e-06   -3.508137391450926e-07
-3.425205980279732e-05   8.91154183822599e-06   -3.508137391450926e-07
-3.425205980279732e-05   8.91154183822599e-06   -3.508137391450926e-07
-3.425205980279732e-05   8.91154183822599e-06   -3.508137391450926e-07
-3.354732409691525e-05   0.0   -7.391968799240531e-05
-3.354732409691525e-05   0.0   -7.391968799240531e-05
-3.354732409691525e-05   0.0   -7.391968799240531e-05
-3.354732409691525e-05   0.0   -7.391968799240531e-05
-7.859083316390393e-05   1.0368045874126973e-05   -5.068000405233382e-06
-7.859083316390393e-05   1.0368045874126973e-05   -5.068000405233382e-06
-7.859083316390393e-05   1.0368045874126973e-05   -5.068000405233382e-06
-7.859083316390393e-05   1.0368045874126973e-05   -5.068000405233382e-06
-5.608600395492225e-05   4.7770201665793695e-06   -3.922143366234126e-05
-5.608600395492225e-05   4.7770201665793695e-06   -3.922143366234126e-05
-5.608600395492225e-05   4.7770201665793695e-06   -3.922143366234126e-05
-5.608600395492225e-05   4.7770201665793695e-06   -3.922143366234126e-05
-3.641220336714338e-05   0.0   -7.096167281289139e-05
-3.641220336714338e-05   0.0   -7.096167281289139e-05
-3.641220336714338e-05   0.0   -7.096167281289139e-05
-3.641220336714338e-05   0.0   -7.096167281289139e-05
4.749687099941013e-06   -6.532899665073435e-07   -2.7504960143217305e-06
4.749687099941013e-06   -6.532899665073435e-07   -2.7504960143217305e-06
4.749687099941013e-06   -6.532899665073435e-07   -2.7504960143217305e-06
4.749687099941013e-06   -6.532899665073435e-07   -2.7504960143217305e-06
5.63065431592523e-06   0.0   -7.260930740040585e-05
5.63065431592523e-06   0.0   -7.260930740040585e-05
5.63065431592523e-06   0.0   -7.260930740040585e-05
5.63065431592523e-06   0.0   -7.260930740040585e-05
-3.502720595829124e-05   1.2889295643061496e-06   -5.619564681962324e-06
-3.502720595829124e-05   1.2889295643061496e-06   -5.619564681962324e-06
-3.502720595829124e-05   1.2889295643061496e-06   -5.619564681962324e-06
-3.502720595829124e-05   1.2889295643061496e-06   -5.619564681962324e-06
-1.539077452560904e-05   -1.373028822928936e-06   -3.674977537075813e-05
-1.539077452560904e-05   -1.373028822928936e-06   -3.674977537075813e-05
-1.539077452560904e-05   -1.373028822928936e-06   -3.674977537075813e-05
-1.539077452560904e-05   -1.373028822928936e-06   -3.674977537075813e-05
-3.502720595829124e-05   0.0   -7.338266513898981e-05
-3.502720595829124e-05   0.0   -7.338266513898981e-05
-3.502720595829124e-05   0.0   -7.338266513898981e-05
-3.502720595829124e-05   0.0   -7.338266513898981e-05
5.63065431592524e-06   1.2889295643061632e-06   -4.846206943378624e-06
5.63065431592524e-06   1.2889295643061632e-06   -4.846206943378624e-06
5.63065431592524e-06   1.2889295643061632e-06   -4.846206943378624e-06
5.63065431592524e-06   1.2889295643061632e-06   -4.846206943378624e-06
6.325092892862421e-06   0.0   -7.250593813483011e-05
6.325092892862421e-06   0.0   -7.250593813483011e-05
6.325092892862421e-06   0.0   -7.250593813483011e-05
6.325092892862421e-06   0.0   -7.250593813483011e-05
-3.425205980279726e-05   2.998748257557966e-06   -6.67659926326543e-06
-3.425205980279726e-05   2.998748257557966e-06   -6.67659926326543e-06
-3.425205980279726e-05   2.998748257557966e-06   -6.67659926326543e-06
-3.425205980279726e-05   2.998748257557966e-06   -6.67659926326543e-06
-1.4351056532714405e-05   7.306058367996404e-07   -3.8484052594281936e-05
-1.4351056532714405e-05   7.306058367996404e-07   -3.8484052594281936e-05
-1.4351056532714405e-05   7.306058367996404e-07   -3.8484052594281936e-05
-1.4351056532714405e-05   7.306058367996404e-07   -3.8484052594281936e-05
-3.425205980279732e-05   0.0   -7.430518708936502e-05
-3.425205980279732e-05   0.0   -7.430518708936502e-05
-3.425205980279732e-05   0.0   -7.430518708936502e-05
-3.425205980279732e-05   0.0   -7.430518708936502e-05
6.325092892862432e-06   2.9987482575579794e-06   -4.877350308730658e-06
6.325092892862432e-06   2.9987482575579794e-06   -4.877350308730658e-06
6.325092892862432e-06   2.9987482575579794e-06   -4.877350308730658e-06
6.325092892862432e-06   2.9987482575579794e-06   -4.877350308730658e-06
7.261664879811118e-06   0.0   -7.093195895801815e-05
7.261664879811118e-06   0.0   -7.093195895801815e-05
7.261664879811118e-06   0.0   -7.093195895801815e-05
7.261664879811118e-06   0.0   -7.093195895801815e-05
-3.354732409691522e-05   4.979548390645171e-06   -5.9047063645280295e-06
-3.354732409691522e-05   4.979548390645171e-06   -5.9047063645280295e-06
-3.354732409691522e-05   4.979548390645171e-06   -5.9047063645280295e-06
-3.354732409691522e-05   4.979548390645171e-06   -5.9047063645280295e-06
-1.3495197461493071e-05   2.8110234427889536e-06   -3.802380245485118e-05
-1.3495197461493071e-05   2.8110234427889536e-06   -3.802380245485118e-05
-1.3495197461493071e-05   2.8110234427889536e-06   -3.802380245485118e-05
-1.3495197461493071e-05   2.8110234427889536e-06   -3.802380245485118e-05
4.749687099941022e-06   0.0   -7.135364679279579e-05
4.749687099941022e-06   0.0   -7.135364679279579e-05
4.749687099941022e-06   0.0   -7.135364679279579e-05
4.749687099941022e-06   0.0   -7.135364679279579e-05
4.9424653969764524e-05   -5.7969721387490135e-06   -3.735519596726475e-07
4.9424653969764524e-05   -5.7969721387490135e-06   -3.735519596726475e-07
4.9424653969764524e-05   -5.7969721387490135e-06   -3.735519596726475e-07
4.9424653969764524e-05   -5.7969721387490135e-06   -3.735519596726475e-07
4.95034528143812e-05   0.0   -7.523251895698393e-05
4.95034528143812e-05   0.0   -7.523251895698393e-05
4.95034528143812e-05   0.0   -7.523251895698393e-05
4.95034528143812e-05   0.0   -7.523251895698393e-05
5.630654315925249e-06   -4.3720192609630144e-06   5.120234303538057e-07
5.630654315925249e-06   -4.3720192609630144e-06   5.120234303538057e-07
5.630654315925249e-06   -4.3720192609630144e-06   5.120234303538057e-07
5.630654315925249e-06   -4.3720192609630144e-06   5.120234303538057e-07
2.7126569957161112e-05   -3.2323934701567714e-06   -3.599827811285635e-05
2.7126569957161112e-05   -3.2323934701567714e-06   -3.599827811285635e-05
2.7126569957161112e-05   -3.2323934701567714e-06   -3.599827811285635e-05
2.7126569957161112e-05   -3.2323934701567714e-06   -3.599827811285635e-05
5.630654315925249e-06   0.0   -7.260930740040611e-05
5.630654315925249e-06   0.0   -7.260930740040611e-05
5.630654315925249e-06   0.0   -7.260930740040611e-05
5.630654315925249e-06   0.0   -7.260930740040611e-05
4.95034528143812e-05   -4.3720192609630144e-06   -2.111188126224011e-06
4.95034528143812e-05   -4.3720192609630144e-06   -2.111188126224011e-06
4.95034528143812e-05   -4.3720192609630144e-06   -2.111188126224011e-06
4.95034528143812e-05   -4.3720192609630144e-06   -2.111188126224011e-06
4.928360612748455e-05   0.0   -7.415816189459269e-05
4.928360612748455e-05   0.0   -7.415816189459269e-05
4.928360612748455e-05   0.0   -7.415816189459269e-05
4.928360612748455e-05   0.0   -7.415816189459269e-05
6.325092892862432e-06   -2.75370626627076e-06   -9.084160771267121e-07
6.325092892862432e-06   -2.75370626627076e-06   -9.084160771267121e-07
6.325092892862432e-06   -2.75370626627076e-06   -9.084160771267121e-07
6.325092892862432e-06   -2.75370626627076e-06   -9.084160771267121e-07
2.74571302217049e-05   -1.2907120784888212e-06   -3.700627480453329e-05
2.74571302217049e-05   -1.2907120784888212e-06   -3.700627480453329e-05
2.74571302217049e-05   -1.2907120784888212e-06   -3.700627480453329e-05
2.74571302217049e-05   -1.2907120784888212e-06   -3.700627480453329e-05
6.325092892862426e-06   0.0   -7.250593813483017e-05
6.325092892862426e-06   0.0   -7.250593813483017e-05
6.325092892862426e-06   0.0   -7.250593813483017e-05
6.325092892862426e-06   0.0   -7.250593813483017e-05
4.928360612748455e-05   -2.75370626627076e-06   -2.5606398368891624e-06
4.928360612748455e-05   -2.75370626627076e-06   -2.5606398368891624e-06
4.928360612748455e-05   -2.75370626627076e-06   -2.5606398368891624e-06
4.928360612748455e-05   -2.75370626627076e-06   -2.5606398368891624e-06
5.023055713631757e-05   0.0   -7.12791056123989e-05
5.023055713631757e-05   0.0   -7.12791056123989e-05
5.023055713631757e-05   0.0   -7.12791056123989e-05
5.023055713631757e-05   0.0   -7.12791056123989e-05
7.261664879811131e-06   -5.785777573010604e-07   6.828614694924376e-07
7.261664879811131e-06   -5.785777573010604e-07   6.828614694924376e-07
7.261664879811131e-06   -5.785777573010604e-07   6.828614694924376e-07
7.261664879811131e-06   -5.785777573010604e-07   6.828614694924376e-07
2.8277825014589977e-05   1.0223604353594404e-06   -3.530463500406857e-05
2.8277825014589977e-05   1.0223604353594404e-06   -3.530463500406857e-05
2.8277825014589977e-05   1.0223604353594404e-06   -3.530463500406857e-05
2.8277825014589977e-05   1.0223604353594404e-06   -3.530463500406857e-05
4.9424653969764524e-05   0.0   -7.48318300760452e-05
4.9424653969764524e-05   0.0   -7.48318300760452e-05
4.9424653969764524e-05   0.0   -7.48318300760452e-05
4.9424653969764524e-05   0.0   -7.48318300760452e-05
0.00011153517017765473   -1.4689184772362634e-05   1.9872186073688157e-05
0.00011153517017765473   -1.4689184772362634e-05   1.9872186073688157e-05
0.00011153517017765473   -1.4689184772362634e-05   1.9872186073688157e-05
0.00011153517017765473   -1.4689184772362634e-05   1.9872186073688157e-05
0.00010473772147074478   0.0   -8.273429378856162e-05
0.00010473772147074478   0.0   -8.273429378856162e-05
0.00010473772147074478   0.0   -8.273429378856162e-05
0.00010473772147074478   0.0   -8.273429378856162e-05
4.95034528143812e-05   -1.2502958052629508e-05   1.6824595470288665e-05
4.95034528143812e-05   -1.2502958052629508e-05   1.6824595470288665e-05
4.95034528143812e-05   -1.2502958052629508e-05   1.6824595470288665e-05
4.95034528143812e-05   -1.2502958052629508e-05   1.6824595470288665e-05
7.708118772025465e-05   -6.585386427097019e-06   -3.268883901481984e-05
7.708118772025465e-05   -6.585386427097019e-06   -3.268883901481984e-05
7.708118772025465e-05   -6.585386427097019e-06   -3.268883901481984e-05
7.708118772025465e-05   -6.585386427097019e-06   -3.268883901481984e-05
4.950345281438116e-05   0.0   -7.523251895698386e-05
4.950345281438116e-05   0.0   -7.523251895698386e-05
4.950345281438116e-05   0.0   -7.523251895698386e-05
4.950345281438116e-05   0.0   -7.523251895698386e-05
0.00010473772147074442   -1.2502958052629454e-05   9.32282063871096e-06
0.00010473772147074442   -1.2502958052629454e-05   9.32282063871096e-06
0.00010473772147074442   -1.2502958052629454e-05   9.32282063871096e-06
0.00010473772147074442   -1.2502958052629454e-05   9.32282063871096e-06
0.00010159960908629992   0.0   -8.101411670467883e-05
0.00010159960908629992   0.0   -8.101411670467883e-05
0.00010159960908629992   0.0   -8.101411670467883e-05
0.00010159960908629992   0.0   -8.101411670467883e-05
4.928360612748455e-05   -1.1426591350143558e-05   1.3035176370099568e-05
4.928360612748455e-05   -1.1426591350143558e-05   1.3035176370099568e-05
4.928360612748455e-05   -1.1426591350143558e-05   1.3035176370099568e-05
4.928360612748455e-05   -1.1426591350143558e-05   1.3035176370099568e-05
7.555153095034052e-05   -4.817998123079093e-06   -3.470985427089906e-05
7.555153095034052e-05   -4.817998123079093e-06   -3.470985427089906e-05
7.555153095034052e-05   -4.817998123079093e-06   -3.470985427089906e-05
7.555153095034052e-05   -4.817998123079093e-06   -3.470985427089906e-05
4.928360612748455e-05   0.0   -7.415816189459269e-05
4.928360612748455e-05   0.0   -7.415816189459269e-05
4.928360612748455e-05   0.0   -7.415816189459269e-05
4.928360612748455e-05   0.0   -7.415816189459269e-05
0.00010159960908629957   -1.1426591350143504e-05   6.179221560013401e-06
0.00010159960908629957   -1.1426591350143504e-05   6.179221560013401e-06
0.00010159960908629957   -1.1426591350143504e-05   6.179221560013401e-06
0.00010159960908629957   -1.1426591350143504e-05   6.179221560013401e-06
9.693331556675842e-05   0.0   -7.661110353883548e-05
9.693331556675842e-05   0.0   -7.661110353883548e-05
9.693331556675842e-05   0.0   -7.661110353883548e-05
9.693331556675842e-05   0.0   -7.661110353883548e-05
5.023055713631757e-05   -8.886663210727855e-06   6.558825105002796e-06
5.023055713631757e-05   -8.886663210727855e-06   6.558825105002796e-06
5.023055713631757e-05   -8.886663210727855e-06   6.558825105002796e-06
5.023055713631757e-05   -8.886663210727855e-06   6.558825105002796e-06
7.310846084712158e-05   -2.0441180368690933e-06   -3.56765415173191e-05
7.310846084712158e-05   -2.0441180368690933e-06   -3.56765415173191e-05
7.310846084712158e-05   -2.0441180368690933e-06   -3.56765415173191e-05
7.310846084712158e-05   -2.0441180368690933e-06   -3.56765415173191e-05
-0.00010909722178394947   1.3932860892949865e-05   -7.15244972958161e-05
-0.00010909722178394947   1.3932860892949865e-05   -7.15244972958161e-05
-0.00010909722178394947   1.3932860892949865e-05   -7.15244972958161e-05
-0.00010909722178394947   1.3932860892949865e-05   -7.15244972958161e-05
-6.987013748204507e-05   1.2533449570726089e-05   -6.9856702526430614e-06