<?xml version="1.0"?> 
<VTKFile type="UnstructuredGrid"> 
   <UnstructuredGrid> 
      <Piece NumberOfPoints="6000"  NumberOfCells="1500">  
          <Points>  
             <DataArray type="Float64" NumberOfComponents="3" format="ascii">   
-500.0   0.0   0.0
-450.0   0.0   0.0
-500.0   30.0   0.0
-500.0   0.0   16.666666666666668
-450.0   0.0   0.0
-450.0   30.0   0.0
-500.0   30.0   0.0
-450.0   30.0   16.666666666666668
-500.0   0.0   16.666666666666668
-500.0   30.0   16.666666666666668
-450.0   30.0   16.666666666666668
-500.0   30.0   0.0
-500.0   0.0   16.666666666666668
-450.0   30.0   16.666666666666668
-450.0   0.0   16.666666666666668
-450.0   0.0   0.0
-500.0   0.0   16.666666666666668
-450.0   30.0   16.666666666666668
-450.0   0.0   0.0
-500.0   30.0   0.0
-500.0   0.0   16.666666666666668
-450.0   0.0   16.666666666666668
-500.0   30.0   16.666666666666668
-500.0   0.0   33.333333333333336
-450.0   0.0   16.666666666666668
-450.0   30.0   16.666666666666668
-500.0   30.0   16.666666666666668
-450.0   30.0   33.333333333333336
-500.0   0.0   33.333333333333336
-500.0   30.0   33.333333333333336
-450.0   30.0   33.333333333333336
-500.0   30.0   16.666666666666668
-500.0   0.0   33.333333333333336
-450.0   30.0   33.333333333333336
-450.0   0.0   33.333333333333336
-450.0   0.0   16.666666666666668
-500.0   0.0   33.333333333333336
-450.0   30.0   33.333333333333336
-450.0   0.0   16.666666666666668
-500.0   30.0   16.666666666666668
-500.0   0.0   33.333333333333336
-450.0   0.0   33.333333333333336
-500.0   30.0   33.333333333333336
-500.0   0.0   50.0
-450.0   0.0   33.333333333333336
-450.0   30.0   33.333333333333336
-500.0   30.0   33.333333333333336
-450.0   30.0   50.0
-500.0   0.0   50.0
-500.0   30.0   50.0
-450.0   30.0   50.0
-500.0   30.0   33.333333333333336
-500.0   0.0   50.0
-450.0   30.0   50.0
-450.0   0.0   50.0
-450.0   0.0   33.333333333333336
-500.0   0.0   50.0
-450.0   30.0   50.0
-450.0   0.0   33.333333333333336
-500.0   30.0   33.333333333333336
-500.0   30.0   0.0
-450.0   30.0   0.0
-500.0   60.0   0.0
-500.0   30.0   16.666666666666668
-450.0   30.0   0.0
-450.0   60.0   0.0
-500.0   60.0   0.0
-450.0   60.0   16.666666666666668
-500.0   30.0   16.666666666666668
-500.0   60.0   16.666666666666668
-450.0   60.0   16.666666666666668
-500.0   60.0   0.0
-500.0   30.0   16.666666666666668
-450.0   60.0   16.666666666666668
-450.0   30.0   16.666666666666668
-450.0   30.0   0.0
-500.0   30.0   16.666666666666668
-450.0   60.0   16.666666666666668
-450.0   30.0   0.0
-500.0   60.0   0.0
-500.0   30.0   16.666666666666668
-450.0   30.0   16.666666666666668
-500.0   60.0   16.666666666666668
-500.0   30.0   33.333333333333336
-450.0   30.0   16.666666666666668
-450.0   60.0   16.666666666666668
-500.0   60.0   16.666666666666668
-450.0   60.0   33.333333333333336
-500.0   30.0   33.333333333333336
-500.0   60.0   33.333333333333336
-450.0   60.0   33.333333333333336
-500.0   60.0   16.666666666666668
-500.0   30.0   33.333333333333336
-450.0   60.0   33.333333333333336
-450.0   30.0   33.333333333333336
-450.0   30.0   16.666666666666668
-500.0   30.0   33.333333333333336
-450.0   60.0   33.333333333333336
-450.0   30.0   16.666666666666668
-500.0   60.0   16.666666666666668
-500.0   30.0   33.333333333333336
-450.0   30.0   33.333333333333336
-500.0   60.0   33.333333333333336
-500.0   30.0   50.0
-450.0   30.0   33.333333333333336
-450.0   60.0   33.333333333333336
-500.0   60.0   33.333333333333336
-450.0   60.0   50.0
-500.0   30.0   50.0
-500.0   60.0   50.0
-450.0   60.0   50.0
-500.0   60.0   33.333333333333336
-500.0   30.0   50.0
-450.0   60.0   50.0
-450.0   30.0   50.0
-450.0   30.0   33.333333333333336
-500.0   30.0   50.0
-450.0   60.0   50.0
-450.0   30.0   33.333333333333336
-500.0   60.0   33.333333333333336
-500.0   60.0   0.0
-450.0   60.0   0.0
-500.0   90.0   0.0
-500.0   60.0   16.666666666666668
-450.0   60.0   0.0
-450.0   90.0   0.0
-500.0   90.0   0.0
-450.0   90.0   16.666666666666668
-500.0   60.0   16.666666666666668
-500.0   90.0   16.666666666666668
-450.0   90.0   16.666666666666668
-500.0   90.0   0.0
-500.0   60.0   16.666666666666668
-450.0   90.0   16.666666666666668
-450.0   60.0   16.666666666666668
-450.0   60.0   0.0
-500.0   60.0   16.666666666666668
-450.0   90.0   16.666666666666668
-450.0   60.0   0.0
-500.0   90.0   0.0
-500.0   60.0   16.666666666666668
-450.0   60.0   16.666666666666668
-500.0   90.0   16.666666666666668
-500.0   60.0   33.333333333333336
-450.0   60.0   16.666666666666668
-450.0   90.0   16.666666666666668
-500.0   90.0   16.666666666666668
-450.0   90.0   33.333333333333336
-500.0   60.0   33.333333333333336
-500.0   90.0   33.333333333333336
-450.0   90.0   33.333333333333336
-500.0   90.0   16.666666666666668
-500.0   60.0   33.333333333333336
-450.0   90.0   33.333333333333336
-450.0   60.0   33.333333333333336
-450.0   60.0   16.666666666666668
-500.0   60.0   33.333333333333336
-450.0   90.0   33.333333333333336
-450.0   60.0   16.666666666666668
-500.0   90.0   16.666666666666668
-500.0   60.0   33.333333333333336
-450.0   60.0   33.333333333333336
-500.0   90.0   33.333333333333336
-500.0   60.0   50.0
-450.0   60.0   33.333333333333336
-450.0   90.0   33.333333333333336
-500.0   90.0   33.333333333333336
-450.0   90.0   50.0
-500.0   60.0   50.0
-500.0   90.0   50.0
-450.0   90.0   50.0
-500.0   90.0   33.333333333333336
-500.0   60.0   50.0
-450.0   90.0   50.0
-450.0   60.0   50.0
-450.0   60.0   33.333333333333336
-500.0   60.0   50.0
-450.0   90.0   50.0
-450.0   60.0   33.333333333333336
-500.0   90.0   33.333333333333336
-500.0   90.0   0.0
-450.0   90.0   0.0
-500.0   120.0   0.0
-500.0   90.0   16.666666666666668
-450.0   90.0   0.0
-450.0   120.0   0.0
-500.0   120.0   0.0
-450.0   120.0   16.666666666666668
-500.0   90.0   16.666666666666668
-500.0   120.0   16.666666666666668
-450.0   120.0   16.666666666666668
-500.0   120.0   0.0
-500.0   90.0   16.666666666666668
-450.0   120.0   16.666666666666668
-450.0   90.0   16.666666666666668
-450.0   90.0   0.0
-500.0   90.0   16.666666666666668
-450.0   120.0   16.666666666666668
-450.0   90.0   0.0
-500.0   120.0   0.0
-500.0   90.0   16.666666666666668
-450.0   90.0   16.666666666666668
-500.0   120.0   16.666666666666668
-500.0   90.0   33.333333333333336
-450.0   90.0   16.666666666666668
-450.0   120.0   16.666666666666668
-500.0   120.0   16.666666666666668
-450.0   120.0   33.333333333333336
-500.0   90.0   33.333333333333336
-500.0   120.0   33.333333333333336
-450.0   120.0   33.333333333333336
-500.0   120.0   16.666666666666668
-500.0   90.0   33.333333333333336
-450.0   120.0   33.333333333333336
-450.0   90.0   33.333333333333336
-450.0   90.0   16.666666666666668
-500.0   90.0   33.333333333333336
-450.0   120.0   33.333333333333336
-450.0   90.0   16.666666666666668
-500.0   120.0   16.666666666666668
-500.0   90.0   33.333333333333336
-450.0   90.0   33.333333333333336
-500.0   120.0   33.333333333333336
-500.0   90.0   50.0
-450.0   90.0   33.333333333333336
-450.0   120.0   33.333333333333336
-500.0   120.0   33.333333333333336
-450.0   120.0   50.0
-500.0   90.0   50.0
-500.0   120.0   50.0
-450.0   120.0   50.0
-500.0   120.0   33.333333333333336
-500.0   90.0   50.0
-450.0   120.0   50.0
-450.0   90.0   50.0
-450.0   90.0   33.333333333333336
-500.0   90.0   50.0
-450.0   120.0   50.0
-450.0   90.0   33.333333333333336
-500.0   120.0   33.333333333333336
-500.0   120.0   0.0
-450.0   120.0   0.0
-500.0   150.0   0.0
-500.0   120.0   16.666666666666668
-450.0   120.0   0.0
-450.0   150.0   0.0
-500.0   150.0   0.0
-450.0   150.0   16.666666666666668
-500.0   120.0   16.666666666666668
-500.0   150.0   16.666666666666668
-450.0   150.0   16.666666666666668
-500.0   150.0   0.0
-500.0   120.0   16.666666666666668
-450.0   150.0   16.666666666666668
-450.0   120.0   16.666666666666668
-450.0   120.0   0.0
-500.0   120.0   16.666666666666668
-450.0   150.0   16.666666666666668
-450.0   120.0   0.0
-500.0   150.0   0.0
-500.0   120.0   16.666666666666668
-450.0   120.0   16.666666666666668
-500.0   150.0   16.666666666666668
-500.0   120.0   33.333333333333336
-450.0   120.0   16.666666666666668
-450.0   150.0   16.666666666666668
-500.0   150.0   16.666666666666668
-450.0   150.0   33.333333333333336
-500.0   120.0   33.333333333333336
-500.0   150.0   33.333333333333336
-450.0   150.0   33.333333333333336
-500.0   150.0   16.666666666666668
-500.0   120.0   33.333333333333336
-450.0   150.0   33.333333333333336
-450.0   120.0   33.333333333333336
-450.0   120.0   16.666666666666668
-500.0   120.0   33.333333333333336
-450.0   150.0   33.333333333333336
-450.0   120.0   16.666666666666668
-500.0   150.0   16.666666666666668
-500.0   120.0   33.333333333333336
-450.0   120.0   33.333333333333336
-500.0   150.0   33.333333333333336
-500.0   120.0   50.0
-450.0   120.0   33.333333333333336
-450.0   150.0   33.333333333333336
-500.0   150.0   33.333333333333336
-450.0   150.0   50.0
-500.0   120.0   50.0
-500.0   150.0   50.0
-450.0   150.0   50.0
-500.0   150.0   33.333333333333336
-500.0   120.0   50.0
-450.0   150.0   50.0
-450.0   120.0   50.0
-450.0   120.0   33.333333333333336
-500.0   120.0   50.0
-450.0   150.0   50.0
-450.0   120.0   33.333333333333336
-500.0   150.0   33.333333333333336
-450.0   0.0   0.0
-400.0   0.0   0.0
-450.0   30.0   0.0
-450.0   0.0   16.666666666666668
-400.0   0.0   0.0
-400.0   30.0   0.0
-450.0   30.0   0.0
-400.0   30.0   16.666666666666668
-450.0   0.0   16.666666666666668
-450.0   30.0   16.666666666666668
-400.0   30.0   16.666666666666668
-450.0   30.0   0.0
-450.0   0.0   16.666666666666668
-400.0   30.0   16.666666666666668
-400.0   0.0   16.666666666666668
-400.0   0.0   0.0
-450.0   0.0   16.666666666666668
-400.0   30.0   16.666666666666668
-400.0   0.0   0.0
-450.0   30.0   0.0
-450.0   0.0   16.666666666666668
-400.0   0.0   16.666666666666668
-450.0   30.0   16.666666666666668
[...]
          <PointData>  
             <DataArray type="Float64" NumberOfComponents="3" Name="Strains" format="ascii">   
-3.804594846542248e-05   0.0   -2.5126140459846665e-05
-3.804594846542248e-05   0.0   -2.5126140459846665e-05
-3.804594846542248e-05   0.0   -2.5126140459846665e-05
-3.804594846542248e-05   0.0   -2.5126140459846665e-05
-2.4193891593193362e-05   4.193993296948835e-06   4.770169720377912e-07
-2.4193891593193362e-05   4.193993296948835e-06   4.770169720377912e-07
-2.4193891593193362e-05   4.193993296948835e-06   4.770169720377912e-07
-2.4193891593193362e-05   4.193993296948835e-06   4.770169720377912e-07
-2.370477280359964e-05   0.0   -2.373473355581526e-05
-2.370477280359964e-05   0.0   -2.373473355581526e-05
-2.370477280359964e-05   0.0   -2.373473355581526e-05
-2.370477280359964e-05   0.0   -2.373473355581526e-05
-3.980372581660294e-05   5.042914426638824e-06   7.110614320705042e-08
-3.980372581660294e-05   5.042914426638824e-06   7.110614320705042e-08
-3.980372581660294e-05   5.042914426638824e-06   7.110614320705042e-08
-3.980372581660294e-05   5.042914426638824e-06   7.110614320705042e-08
-3.0875360634511e-05   1.1595057533595008e-06   -1.2479457289645227e-05
-3.0875360634511e-05   1.1595057533595008e-06   -1.2479457289645227e-05
-3.0875360634511e-05   1.1595057533595008e-06   -1.2479457289645227e-05
-3.0875360634511e-05   1.1595057533595008e-06   -1.2479457289645227e-05
-3.9803725816603006e-05   0.0   -2.676048221179856e-05
-3.9803725816603006e-05   0.0   -2.676048221179856e-05
-3.9803725816603006e-05   0.0   -2.676048221179856e-05
-3.9803725816603006e-05   0.0   -2.676048221179856e-05
-2.370477280359964e-05   5.042914426638831e-06   3.0968547991903393e-06
-2.370477280359964e-05   5.042914426638831e-06   3.0968547991903393e-06
-2.370477280359964e-05   5.042914426638831e-06   3.0968547991903393e-06
-2.370477280359964e-05   5.042914426638831e-06   3.0968547991903393e-06
-2.3760117061587972e-05   0.0   -2.4312579089178472e-05
-2.3760117061587972e-05   0.0   -2.4312579089178472e-05
-2.3760117061587972e-05   0.0   -2.4312579089178472e-05
-2.3760117061587972e-05   0.0   -2.4312579089178472e-05
-4.103291281029381e-05   5.4054215477786175e-06   1.2321608966641876e-06
-4.103291281029381e-05   5.4054215477786175e-06   1.2321608966641876e-06
-4.103291281029381e-05   5.4054215477786175e-06   1.2321608966641876e-06
-4.103291281029381e-05   5.4054215477786175e-06   1.2321608966641876e-06
-3.1781921439095434e-05   2.0399192688500693e-06   -1.2166856687975955e-05
-3.1781921439095434e-05   2.0399192688500693e-06   -1.2166856687975955e-05
-3.1781921439095434e-05   2.0399192688500693e-06   -1.2166856687975955e-05
-3.1781921439095434e-05   2.0399192688500693e-06   -1.2166856687975955e-05
-4.103291281029388e-05   0.0   -2.7555832017845648e-05
-4.103291281029388e-05   0.0   -2.7555832017845648e-05
-4.103291281029388e-05   0.0   -2.7555832017845648e-05
-4.103291281029388e-05   0.0   -2.7555832017845648e-05
-2.3760117061587972e-05   5.405421547778631e-06   4.475413825331377e-06
-2.3760117061587972e-05   5.405421547778631e-06   4.475413825331377e-06
-2.3760117061587972e-05   5.405421547778631e-06   4.475413825331377e-06
-2.3760117061587972e-05   5.405421547778631e-06   4.475413825331377e-06
-2.3734656170004745e-05   0.0   -2.4462876940899634e-05
-2.3734656170004745e-05   0.0   -2.4462876940899634e-05
-2.3734656170004745e-05   0.0   -2.4462876940899634e-05
-2.3734656170004745e-05   0.0   -2.4462876940899634e-05
-4.369234006006281e-05   6.166310537511058e-06   5.10014322002395e-06
-4.369234006006281e-05   6.166310537511058e-06   5.10014322002395e-06
-4.369234006006281e-05   6.166310537511058e-06   5.10014322002395e-06
-4.369234006006281e-05   6.166310537511058e-06   5.10014322002395e-06
-3.238378449014926e-05   2.577462564121676e-06   -1.1594140612465005e-05
-3.238378449014926e-05   2.577462564121676e-06   -1.1594140612465005e-05
-3.238378449014926e-05   2.577462564121676e-06   -1.1594140612465005e-05
-3.238378449014926e-05   2.577462564121676e-06   -1.1594140612465005e-05
-2.4193891593193403e-05   0.0   -2.260974448167736e-05
-2.4193891593193403e-05   0.0   -2.260974448167736e-05
-2.4193891593193403e-05   0.0   -2.260974448167736e-05
-2.4193891593193403e-05   0.0   -2.260974448167736e-05
-1.1031336526616737e-05   1.5341847438444045e-06   2.483581422570398e-07
-1.1031336526616737e-05   1.5341847438444045e-06   2.483581422570398e-07
-1.1031336526616737e-05   1.5341847438444045e-06   2.483581422570398e-07
-1.1031336526616737e-05   1.5341847438444045e-06   2.483581422570398e-07
-1.05985678588642e-05   0.0   -2.242010629487607e-05
-1.05985678588642e-05   0.0   -2.242010629487607e-05
-1.05985678588642e-05   0.0   -2.242010629487607e-05
-1.05985678588642e-05   0.0   -2.242010629487607e-05
-2.370477280359964e-05   2.191045434898648e-06   -1.8910586479228619e-06
-2.370477280359964e-05   2.191045434898648e-06   -1.8910586479228619e-06
-2.370477280359964e-05   2.191045434898648e-06   -1.8910586479228619e-06
-2.370477280359964e-05   2.191045434898648e-06   -1.8910586479228619e-06
-1.7396229726028772e-05   1.5803182233440737e-07   -1.1185488943002355e-05
-1.7396229726028772e-05   1.5803182233440737e-07   -1.1185488943002355e-05
-1.7396229726028772e-05   1.5803182233440737e-07   -1.1185488943002355e-05
-1.7396229726028772e-05   1.5803182233440737e-07   -1.1185488943002355e-05
-2.370477280359962e-05   0.0   -2.373473355581524e-05
-2.370477280359962e-05   0.0   -2.373473355581524e-05
-2.370477280359962e-05   0.0   -2.373473355581524e-05
-2.370477280359962e-05   0.0   -2.373473355581524e-05
-1.05985678588642e-05   2.191045434898648e-06   -5.764313869836732e-07
-1.05985678588642e-05   2.191045434898648e-06   -5.764313869836732e-07
-1.05985678588642e-05   2.191045434898648e-06   -5.764313869836732e-07
-1.05985678588642e-05   2.191045434898648e-06   -5.764313869836732e-07
-1.035080771618888e-05   0.0   -2.2699159367695256e-05
-1.035080771618888e-05   0.0   -2.2699159367695256e-05
-1.035080771618888e-05   0.0   -2.2699159367695256e-05
-1.035080771618888e-05   0.0   -2.2699159367695256e-05
-2.3760117061587972e-05   2.689032869138693e-06   -1.963730180179993e-06
-2.3760117061587972e-05   2.689032869138693e-06   -1.963730180179993e-06
-2.3760117061587972e-05   2.689032869138693e-06   -1.963730180179993e-06
-2.3760117061587972e-05   2.689032869138693e-06   -1.963730180179993e-06
-1.7027790259894224e-05   8.629784901000004e-07   -1.2088642222246251e-05
-1.7027790259894224e-05   8.629784901000004e-07   -1.2088642222246251e-05
-1.7027790259894224e-05   8.629784901000004e-07   -1.2088642222246251e-05
-1.7027790259894224e-05   8.629784901000004e-07   -1.2088642222246251e-05
-2.3760117061587972e-05   0.0   -2.4312579089178472e-05
-2.3760117061587972e-05   0.0   -2.4312579089178472e-05
-2.3760117061587972e-05   0.0   -2.4312579089178472e-05
-2.3760117061587972e-05   0.0   -2.4312579089178472e-05
-1.035080771618888e-05   2.689032869138693e-06   -3.5031045869677384e-07
-1.035080771618888e-05   2.689032869138693e-06   -3.5031045869677384e-07
-1.035080771618888e-05   2.689032869138693e-06   -3.5031045869677384e-07
-1.035080771618888e-05   2.689032869138693e-06   -3.5031045869677384e-07
-1.0123301742570083e-05   0.0   -2.2583837067842914e-05
-1.0123301742570083e-05   0.0   -2.2583837067842914e-05
-1.0123301742570083e-05   0.0   -2.2583837067842914e-05
-1.0123301742570083e-05   0.0   -2.2583837067842914e-05
-2.373465617000468e-05   3.1317331217611686e-06   -1.777286228508526e-06
-2.373465617000468e-05   3.1317331217611686e-06   -1.777286228508526e-06
-2.373465617000468e-05   3.1317331217611686e-06   -1.777286228508526e-06
-2.373465617000468e-05   3.1317331217611686e-06   -1.777286228508526e-06
-1.694170940207902e-05   1.4406183511129514e-06   -1.208419531266245e-05
-1.694170940207902e-05   1.4406183511129514e-06   -1.208419531266245e-05
-1.694170940207902e-05   1.4406183511129514e-06   -1.208419531266245e-05
-1.694170940207902e-05   1.4406183511129514e-06   -1.208419531266245e-05
-1.1031336526616757e-05   0.0   -2.1689233635370716e-05
-1.1031336526616757e-05   0.0   -2.1689233635370716e-05
-1.1031336526616757e-05   0.0   -2.1689233635370716e-05
-1.1031336526616757e-05   0.0   -2.1689233635370716e-05
1.3949707477912703e-06   -1.9956753938011858e-07   -1.098462034985385e-06
1.3949707477912703e-06   -1.9956753938011858e-07   -1.098462034985385e-06
1.3949707477912703e-06   -1.9956753938011858e-07   -1.098462034985385e-06
1.3949707477912703e-06   -1.9956753938011858e-07   -1.098462034985385e-06
1.6765405963480211e-06   0.0   -2.218624733319288e-05
1.6765405963480211e-06   0.0   -2.218624733319288e-05
1.6765405963480211e-06   0.0   -2.218624733319288e-05
1.6765405963480211e-06   0.0   -2.218624733319288e-05
-1.05985678588642e-05   3.897649361385254e-07   -1.9615922028556967e-06
-1.05985678588642e-05   3.897649361385254e-07   -1.9615922028556967e-06
-1.05985678588642e-05   3.897649361385254e-07   -1.9615922028556967e-06
-1.05985678588642e-05   3.897649361385254e-07   -1.9615922028556967e-06
-4.677397965134357e-06   -4.1417808151853556e-07   -1.1347842881811156e-05
-4.677397965134357e-06   -4.1417808151853556e-07   -1.1347842881811156e-05
-4.677397965134357e-06   -4.1417808151853556e-07   -1.1347842881811156e-05
-4.677397965134357e-06   -4.1417808151853556e-07   -1.1347842881811156e-05
-1.05985678588642e-05   0.0   -2.242010629487607e-05
-1.05985678588642e-05   0.0   -2.242010629487607e-05
-1.05985678588642e-05   0.0   -2.242010629487607e-05
-1.05985678588642e-05   0.0   -2.242010629487607e-05
1.676540596348024e-06   3.897649361385254e-07   -1.7277332411725802e-06
1.676540596348024e-06   3.897649361385254e-07   -1.7277332411725802e-06
1.676540596348024e-06   3.897649361385254e-07   -1.7277332411725802e-06
1.676540596348024e-06   3.897649361385254e-07   -1.7277332411725802e-06
1.9002943516376968e-06   0.0   -2.215362286898084e-05
1.9002943516376968e-06   0.0   -2.215362286898084e-05
1.9002943516376968e-06   0.0   -2.215362286898084e-05
1.9002943516376968e-06   0.0   -2.215362286898084e-05
-1.0350807716188861e-05   9.09227497857298e-07   -2.280655921317622e-06
-1.0350807716188861e-05   9.09227497857298e-07   -2.280655921317622e-06
-1.0350807716188861e-05   9.09227497857298e-07   -2.280655921317622e-06
-1.0350807716188861e-05   9.09227497857298e-07   -2.280655921317622e-06
-4.34913675361325e-06   2.2206952157932886e-07   -1.1871146073176882e-05
-4.34913675361325e-06   2.2206952157932886e-07   -1.1871146073176882e-05
-4.34913675361325e-06   2.2206952157932886e-07   -1.1871146073176882e-05
-4.34913675361325e-06   2.2206952157932886e-07   -1.1871146073176882e-05
-1.035080771618888e-05   0.0   -2.2699159367695256e-05
-1.035080771618888e-05   0.0   -2.2699159367695256e-05
-1.035080771618888e-05   0.0   -2.2699159367695256e-05
-1.035080771618888e-05   0.0   -2.2699159367695256e-05
1.9002943516377002e-06   9.09227497857298e-07   -1.7351194226032485e-06
1.9002943516377002e-06   9.09227497857298e-07   -1.7351194226032485e-06
1.9002943516377002e-06   9.09227497857298e-07   -1.7351194226032485e-06
1.9002943516377002e-06   9.09227497857298e-07   -1.7351194226032485e-06
2.1975361480574445e-06   0.0   -2.1677709060048536e-05
2.1975361480574445e-06   0.0   -2.1677709060048536e-05
2.1975361480574445e-06   0.0   -2.1677709060048536e-05
2.1975361480574445e-06   0.0   -2.1677709060048536e-05
-1.0123301742570074e-05   1.5102133463239286e-06   -2.0491072501303637e-06
-1.0123301742570074e-05   1.5102133463239286e-06   -2.0491072501303637e-06
-1.0123301742570074e-05   1.5102133463239286e-06   -2.0491072501303637e-06
-1.0123301742570074e-05   1.5102133463239286e-06   -2.0491072501303637e-06
-4.076635784065708e-06   8.512085897055693e-07   -1.1731480993666615e-05
-4.076635784065708e-06   8.512085897055693e-07   -1.1731480993666615e-05
-4.076635784065708e-06   8.512085897055693e-07   -1.1731480993666615e-05
-4.076635784065708e-06   8.512085897055693e-07   -1.1731480993666615e-05
1.3949707477912726e-06   0.0   -2.1808974158998787e-05
1.3949707477912726e-06   0.0   -2.1808974158998787e-05
1.3949707477912726e-06   0.0   -2.1808974158998787e-05
1.3949707477912726e-06   0.0   -2.1808974158998787e-05
1.4893329481920852e-05   -1.746896058947541e-06   -3.5984723748466174e-07
1.4893329481920852e-05   -1.746896058947541e-06   -3.5984723748466174e-07
1.4893329481920852e-05   -1.746896058947541e-06   -3.5984723748466174e-07
1.4893329481920852e-05   -1.746896058947541e-06   -3.5984723748466174e-07
1.4934040206123068e-05   0.0   -2.2974458247248416e-05
1.4934040206123068e-05   0.0   -2.2974458247248416e-05
1.4934040206123068e-05   0.0   -2.2974458247248416e-05
1.4934040206123068e-05   0.0   -2.2974458247248416e-05
1.676540596348027e-06   -1.3136848567590981e-06   -9.041465023456122e-08
1.676540596348027e-06   -1.3136848567590981e-06   -9.041465023456122e-08
1.676540596348027e-06   -1.3136848567590981e-06   -9.041465023456122e-08
1.676540596348027e-06   -1.3136848567590981e-06   -9.041465023456122e-08
8.16450547695717e-06   -9.712367402080253e-07   -1.1109158321180432e-05
8.16450547695717e-06   -9.712367402080253e-07   -1.1109158321180432e-05
8.16450547695717e-06   -9.712367402080253e-07   -1.1109158321180432e-05
8.16450547695717e-06   -9.712367402080253e-07   -1.1109158321180432e-05
1.676540596348027e-06   0.0   -2.218624733319296e-05
1.676540596348027e-06   0.0   -2.218624733319296e-05
1.676540596348027e-06   0.0   -2.218624733319296e-05
1.676540596348027e-06   0.0   -2.218624733319296e-05
1.4934040206123068e-05   -1.3136848567590981e-06   -8.786255642900193e-07
1.4934040206123068e-05   -1.3136848567590981e-06   -8.786255642900193e-07
1.4934040206123068e-05   -1.3136848567590981e-06   -8.786255642900193e-07
1.4934040206123068e-05   -1.3136848567590981e-06   -8.786255642900193e-07
1.4882341193301842e-05   0.0   -2.2646493588349138e-05
1.4882341193301842e-05   0.0   -2.2646493588349138e-05
1.4882341193301842e-05   0.0   -2.2646493588349138e-05
1.4882341193301842e-05   0.0   -2.2646493588349138e-05
1.9002943516377002e-06   -8.214511989470988e-07   -5.168781328739787e-07
1.9002943516377002e-06   -8.214511989470988e-07   -5.168781328739787e-07
1.9002943516377002e-06   -8.214511989470988e-07   -5.168781328739787e-07
1.9002943516377002e-06   -8.214511989470988e-07   -5.168781328739787e-07
8.279440894824935e-06   -3.835385459634832e-07   -1.1411536629976197e-05
8.279440894824935e-06   -3.835385459634832e-07   -1.1411536629976197e-05
8.279440894824935e-06   -3.835385459634832e-07   -1.1411536629976197e-05
8.279440894824935e-06   -3.835385459634832e-07   -1.1411536629976197e-05
1.9002943516376985e-06   0.0   -2.2153622868980856e-05
1.9002943516376985e-06   0.0   -2.2153622868980856e-05
1.9002943516376985e-06   0.0   -2.2153622868980856e-05
1.9002943516376985e-06   0.0   -2.2153622868980856e-05
1.4882341193301842e-05   -8.214511989470988e-07   -1.00974885224224e-06
1.4882341193301842e-05   -8.214511989470988e-07   -1.00974885224224e-06
1.4882341193301842e-05   -8.214511989470988e-07   -1.00974885224224e-06
1.4882341193301842e-05   -8.214511989470988e-07   -1.00974885224224e-06
1.5182348856750641e-05   0.0   -2.1774156812795152e-05
1.5182348856750641e-05   0.0   -2.1774156812795152e-05
1.5182348856750641e-05   0.0   -2.1774156812795152e-05
1.5182348856750641e-05   0.0   -2.1774156812795152e-05
2.1975361480574483e-06   -1.6074625457763525e-07   -3.63545455599243e-08
2.1975361480574483e-06   -1.6074625457763525e-07   -3.63545455599243e-08
2.1975361480574483e-06   -1.6074625457763525e-07   -3.63545455599243e-08
2.1975361480574483e-06   -1.6074625457763525e-07   -3.63545455599243e-08
8.541321604194164e-06   3.1622171348810266e-07   -1.0895511086627214e-05
8.541321604194164e-06   3.1622171348810266e-07   -1.0895511086627214e-05
8.541321604194164e-06   3.1622171348810266e-07   -1.0895511086627214e-05
8.541321604194164e-06   3.1622171348810266e-07   -1.0895511086627214e-05
1.4893329481920852e-05   0.0   -2.285711179436731e-05
1.4893329481920852e-05   0.0   -2.285711179436731e-05
1.4893329481920852e-05   0.0   -2.285711179436731e-05
1.4893329481920852e-05   0.0   -2.285711179436731e-05
3.3699046355806716e-05   -4.437945085597162e-06   5.822982610751025e-06
3.3699046355806716e-05   -4.437945085597162e-06   5.822982610751025e-06
3.3699046355806716e-05   -4.437945085597162e-06   5.822982610751025e-06
3.3699046355806716e-05   -4.437945085597162e-06   5.822982610751025e-06
3.1667323812465076e-05   0.0   -2.523554041305322e-05
3.1667323812465076e-05   0.0   -2.523554041305322e-05
3.1667323812465076e-05   0.0   -2.523554041305322e-05
3.1667323812465076e-05   0.0   -2.523554041305322e-05
1.4934040206123068e-05   -3.768470276341342e-06   4.914347763321589e-06
1.4934040206123068e-05   -3.768470276341342e-06   4.914347763321589e-06
1.4934040206123068e-05   -3.768470276341342e-06   4.914347763321589e-06
1.4934040206123068e-05   -3.768470276341342e-06   4.914347763321589e-06
2.3280326647192965e-05   -1.982023848904926e-06   -1.0067997494923402e-05
2.3280326647192965e-05   -1.982023848904926e-06   -1.0067997494923402e-05
2.3280326647192965e-05   -1.982023848904926e-06   -1.0067997494923402e-05
2.3280326647192965e-05   -1.982023848904926e-06   -1.0067997494923402e-05
1.4934040206123054e-05   0.0   -2.2974458247248396e-05
1.4934040206123054e-05   0.0   -2.2974458247248396e-05
1.4934040206123054e-05   0.0   -2.2974458247248396e-05
1.4934040206123054e-05   0.0   -2.2974458247248396e-05
3.166732381246496e-05   -3.7684702763413286e-06   2.653265597516775e-06
3.166732381246496e-05   -3.7684702763413286e-06   2.653265597516775e-06
3.166732381246496e-05   -3.7684702763413286e-06   2.653265597516775e-06
3.166732381246496e-05   -3.7684702763413286e-06   2.653265597516775e-06
3.073595362254963e-05   0.0   -2.4711014126057777e-05
3.073595362254963e-05   0.0   -2.4711014126057777e-05
3.073595362254963e-05   0.0   -2.4711014126057777e-05
3.073595362254963e-05   0.0   -2.4711014126057777e-05
1.4882341193301842e-05   -3.4408675628477277e-06   3.7761937937305094e-06
1.4882341193301842e-05   -3.4408675628477277e-06   3.7761937937305094e-06
1.4882341193301842e-05   -3.4408675628477277e-06   3.7761937937305094e-06
1.4882341193301842e-05   -3.4408675628477277e-06   3.7761937937305094e-06
2.2834996914336335e-05   -1.447129899007798e-06   -1.0674475006297608e-05
2.2834996914336335e-05   -1.447129899007798e-06   -1.0674475006297608e-05
2.2834996914336335e-05   -1.447129899007798e-06   -1.0674475006297608e-05
2.2834996914336335e-05   -1.447129899007798e-06   -1.0674475006297608e-05
1.4882341193301842e-05   0.0   -2.2646493588349138e-05
1.4882341193301842e-05   0.0   -2.2646493588349138e-05
1.4882341193301842e-05   0.0   -2.2646493588349138e-05
1.4882341193301842e-05   0.0   -2.2646493588349138e-05
3.073595362254953e-05   -3.440867562847714e-06   1.7116732560218598e-06
3.073595362254953e-05   -3.440867562847714e-06   1.7116732560218598e-06
3.073595362254953e-05   -3.440867562847714e-06   1.7116732560218598e-06
3.073595362254953e-05   -3.440867562847714e-06   1.7116732560218598e-06
2.934083541868154e-05   0.0   -2.3373452197186368e-05
2.934083541868154e-05   0.0   -2.3373452197186368e-05
2.934083541868154e-05   0.0   -2.3373452197186368e-05
2.934083541868154e-05   0.0   -2.3373452197186368e-05
1.5182348856750641e-05   -2.665492307318761e-06   1.823320790423094e-06
1.5182348856750641e-05   -2.665492307318761e-06   1.823320790423094e-06
1.5182348856750641e-05   -2.665492307318761e-06   1.823320790423094e-06
1.5182348856750641e-05   -2.665492307318761e-06   1.823320790423094e-06
2.2111588305991717e-05   -6.05798840697725e-07   -1.0961227704951307e-05
2.2111588305991717e-05   -6.05798840697725e-07   -1.0961227704951307e-05
2.2111588305991717e-05   -6.05798840697725e-07   -1.0961227704951307e-05
2.2111588305991717e-05   -6.05798840697725e-07   -1.0961227704951307e-05
-3.2894396921760474e-05   4.193993296948828e-06   -2.168706439975278e-05
-3.2894396921760474e-05   4.193993296948828e-06   -2.168706439975278e-05