<?xml version="1.0"?> 
<VTKFile type="UnstructuredGrid"> 
   <UnstructuredGrid> 
      <Piece NumberOfPoints="6000"  NumberOfCells="1500">  
          <Points>  
             <DataArray type="Float64" NumberOfComponents="3" format="ascii">   
-500.0   0.0   0.0
-450.0   0.0   0.0
-500.0   30.0   0.0
-500.0   0.0   16.666666666666668
-450.0   0.0   0.0
-450.0   30.0   0.0
-500.0   30.0   0.0
-450.0   30.0   16.666666666666668
-500.0   0.0   16.666666666666668
-500.0   30.0   16.666666666666668
-450.0   30.0   16.666666666666668
-500.0   30.0   0.0
-500.0   0.0   16.666666666666668
-450.0   30.0   16.666666666666668
-450.0   0.0   16.666666666666668
-450.0   0.0   0.0
-500.0   0.0   16.666666666666668
-450.0   30.0   16.666666666666668
-450.0   0.0   0.0
-500.0   30.0   0.0
-500.0   0.0   16.666666666666668
-450.0   0.0   16.666666666666668
-500.0   30.0   16.666666666666668
-500.0   0.0   33.333333333333336
-450.0   0.0   16.666666666666668
-450.0   30.0   16.666666666666668
-500.0   30.0   16.666666666666668
-450.0   30.0   33.333333333333336
-500.0   0.0   33.333333333333336
-500.0   30.0   33.333333333333336
-450.0   30.0   33.333333333333336
-500.0   30.0   16.666666666666668
-500.0   0.0   33.333333333333336
-450.0   30.0   33.333333333333336
-450.0   0.0   33.333333333333336
-450.0   0.0   16.666666666666668
-500.0   0.0   33.333333333333336
-450.0   30.0   33.333333333333336
-450.0   0.0   16.666666666666668
-500.0   30.0   16.666666666666668
-500.0   0.0   33.333333333333336
-450.0   0.0   33.333333333333336
-500.0   30.0   33.333333333333336
-500.0   0.0   50.0
-450.0   0.0   33.333333333333336
-450.0   30.0   33.333333333333336
-500.0   30.0   33.333333333333336
-450.0   30.0   50.0
-500.0   0.0   50.0
-500.0   30.0   50.0
-450.0   30.0   50.0
-500.0   30.0   33.333333333333336
-500.0   0.0   50.0
-450.0   30.0   50.0
-450.0   0.0   50.0
-450.0   0.0   33.333333333333336
-500.0   0.0   50.0
-450.0   30.0   50.0
-450.0   0.0   33.333333333333336
-500.0   30.0   33.333333333333336
-500.0   30.0   0.0
-450.0   30.0   0.0
-500.0   60.0   0.0
-500.0   30.0   16.666666666666668
-450.0   30.0   0.0
-450.0   60.0   0.0
-500.0   60.0   0.0
-450.0   60.0   16.666666666666668
-500.0   30.0   16.666666666666668
-500.0   60.0   16.666666666666668
-450.0   60.0   16.666666666666668
-500.0   60.0   0.0
-500.0   30.0   16.666666666666668
-450.0   60.0   16.666666666666668
-450.0   30.0   16.666666666666668
-450.0   30.0   0.0
-500.0   30.0   16.666666666666668
-450.0   60.0   16.666666666666668
-450.0   30.0   0.0
-500.0   60.0   0.0
-500.0   30.0   16.666666666666668
-450.0   30.0   16.666666666666668
-500.0   60.0   16.666666666666668
-500.0   30.0   33.333333333333336
-450.0   30.0   16.666666666666668
-450.0   60.0   16.666666666666668
-500.0   60.0   16.666666666666668
-450.0   60.0   33.333333333333336
-500.0   30.0   33.333333333333336
-500.0   60.0   33.333333333333336
-450.0   60.0   33.333333333333336
-500.0   60.0   16.666666666666668
-500.0   30.0   33.333333333333336
-450.0   60.0   33.333333333333336
-450.0   30.0   33.333333333333336
-450.0   30.0   16.666666666666668
-500.0   30.0   33.333333333333336
-450.0   60.0   33.333333333333336
-450.0   30.0   16.666666666666668
-500.0   60.0   16.666666666666668
-500.0   30.0   33.333333333333336
-450.0   30.0   33.333333333333336
-500.0   60.0   33.333333333333336
-500.0   30.0   50.0
-450.0   30.0   33.333333333333336
-450.0   60.0   33.333333333333336
-500.0   60.0   33.333333333333336
-450.0   60.0   50.0
-500.0   30.0   50.0
-500.0   60.0   50.0
-450.0   60.0   50.0
-500.0   60.0   33.333333333333336
-500.0   30.0   50.0
-450.0   60.0   50.0
-450.0   30.0   50.0
-450.0   30.0   33.333333333333336
-500.0   30.0   50.0
-450.0   60.0   50.0
-450.0   30.0   33.333333333333336
-500.0   60.0   33.333333333333336
-500.0   60.0   0.0
-450.0   60.0   0.0
-500.0   90.0   0.0
-500.0   60.0   16.666666666666668
-450.0   60.0   0.0
-450.0   90.0   0.0
-500.0   90.0   0.0
-450.0   90.0   16.666666666666668
-500.0   60.0   16.666666666666668
-500.0   90.0   16.666666666666668
-450.0   90.0   16.666666666666668
-500.0   90.0   0.0
-500.0   60.0   16.666666666666668
-450.0   90.0   16.666666666666668
-450.0   60.0   16.666666666666668
-450.0   60.0   0.0
-500.0   60.0   16.666666666666668
-450.0   90.0   16.666666666666668
-450.0   60.0   0.0
-500.0   90.0   0.0
-500.0   60.0   16.666666666666668
-450.0   60.0   16.666666666666668
-500.0   90.0   16.666666666666668
-500.0   60.0   33.333333333333336
-450.0   60.0   16.666666666666668
-450.0   90.0   16.666666666666668
-500.0   90.0   16.666666666666668
-450.0   90.0   33.333333333333336
-500.0   60.0   33.333333333333336
-500.0   90.0   33.333333333333336
-450.0   90.0   33.333333333333336
-500.0   90.0   16.666666666666668
-500.0   60.0   33.333333333333336
-450.0   90.0   33.333333333333336
-450.0   60.0   33.333333333333336
-450.0   60.0   16.666666666666668
-500.0   60.0   33.333333333333336
-450.0   90.0   33.333333333333336
-450.0   60.0   16.666666666666668
-500.0   90.0   16.666666666666668
-500.0   60.0   33.333333333333336
-450.0   60.0   33.333333333333336
-500.0   90.0   33.333333333333336
-500.0   60.0   50.0
-450.0   60.0   33.333333333333336
-450.0   90.0   33.333333333333336
-500.0   90.0   33.333333333333336
-450.0   90.0   50.0
-500.0   60.0   50.0
-500.0   90.0   50.0
-450.0   90.0   50.0
-500.0   90.0   33.333333333333336
-500.0   60.0   50.0
-450.0   90.0   50.0
-450.0   60.0   50.0
-450.0   60.0   33.333333333333336
-500.0   60.0   50.0
-450.0   90.0   50.0
-450.0   60.0   33.333333333333336
-500.0   90.0   33.333333333333336
-500.0   90.0   0.0
-450.0   90.0   0.0
-500.0   120.0   0.0
-500.0   90.0   16.666666666666668
-450.0   90.0   0.0
-450.0   120.0   0.0
-500.0   120.0   0.0
-450.0   120.0   16.666666666666668
-500.0   90.0   16.666666666666668
-500.0   120.0   16.666666666666668
-450.0   120.0   16.666666666666668
-500.0   120.0   0.0
-500.0   90.0   16.666666666666668
-450.0   120.0   16.666666666666668
-450.0   90.0   16.666666666666668
-450.0   90.0   0.0
-500.0   90.0   16.666666666666668
-450.0   120.0   16.666666666666668
-450.0   90.0   0.0
-500.0   120.0   0.0
-500.0   90.0   16.666666666666668
-450.0   90.0   16.666666666666668
-500.0   120.0   16.666666666666668
-500.0   90.0   33.333333333333336
-450.0   90.0   16.666666666666668
-450.0   120.0   16.666666666666668
-500.0   120.0   16.666666666666668
-450.0   120.0   33.333333333333336
-500.0   90.0   33.333333333333336
-500.0   120.0   33.333333333333336
-450.0   120.0   33.333333333333336
-500.0   120.0   16.666666666666668
-500.0   90.0   33.333333333333336
-450.0   120.0   33.333333333333336
-450.0   90.0   33.333333333333336
-450.0   90.0   16.666666666666668
-500.0   90.0   33.333333333333336
-450.0   120.0   33.333333333333336
-450.0   90.0   16.666666666666668
-500.0   120.0   16.666666666666668
-500.0   90.0   33.333333333333336
-450.0   90.0   33.333333333333336
-500.0   120.0   33.333333333333336
-500.0   90.0   50.0
-450.0   90.0   33.333333333333336
-450.0   120.0   33.333333333333336
-500.0   120.0   33.333333333333336
-450.0   120.0   50.0
-500.0   90.0   50.0
-500.0   120.0   50.0
-450.0   120.0   50.0
-500.0   120.0   33.333333333333336
-500.0   90.0   50.0
-450.0   120.0   50.0
-450.0   90.0   50.0
-450.0   90.0   33.333333333333336
-500.0   90.0   50.0
-450.0   120.0   50.0
-450.0   90.0   33.333333333333336
-500.0   120.0   33.333333333333336
-500.0   120.0   0.0
-450.0   120.0   0.0
-500.0   150.0   0.0
-500.0   120.0   16.666666666666668
-450.0   120.0   0.0
-450.0   150.0   0.0
-500.0   150.0   0.0
-450.0   150.0   16.666666666666668
-500.0   120.0   16.666666666666668
-500.0   150.0   16.666666666666668
-450.0   150.0   16.666666666666668
-500.0   150.0   0.0
-500.0   120.0   16.666666666666668
-450.0   150.0   16.666666666666668
-450.0   120.0   16.666666666666668
-450.0   120.0   0.0
-500.0   120.0   16.666666666666668
-450.0   150.0   16.666666666666668
-450.0   120.0   0.0
-500.0   150.0   0.0
-500.0   120.0   16.666666666666668
-450.0   120.0   16.666666666666668
-500.0   150.0   16.666666666666668
-500.0   120.0   33.333333333333336
-450.0   120.0   16.666666666666668
-450.0   150.0   16.666666666666668
-500.0   150.0   16.666666666666668
-450.0   150.0   33.333333333333336
-500.0   120.0   33.333333333333336
-500.0   150.0   33.333333333333336
-450.0   150.0   33.333333333333336
-500.0   150.0   16.666666666666668
-500.0   120.0   33.333333333333336
-450.0   150.0   33.333333333333336
-450.0   120.0   33.333333333333336
-450.0   120.0   16.666666666666668
-500.0   120.0   33.333333333333336
-450.0   150.0   33.333333333333336
-450.0   120.0   16.666666666666668
-500.0   150.0   16.666666666666668
-500.0   120.0   33.333333333333336
-450.0   120.0   33.333333333333336
-500.0   150.0   33.333333333333336
-500.0   120.0   50.0
-450.0   120.0   33.333333333333336
-450.0   150.0   33.333333333333336
-500.0   150.0   33.333333333333336
-450.0   150.0   50.0
-500.0   120.0   50.0
-500.0   150.0   50.0
-450.0   150.0   50.0
-500.0   150.0   33.333333333333336
-500.0   120.0   50.0
-450.0   150.0   50.0
-450.0   120.0   50.0
-450.0   120.0   33.333333333333336
-500.0   120.0   50.0
-450.0   150.0   50.0
-450.0   120.0   33.333333333333336
-500.0   150.0   33.333333333333336
-450.0   0.0   0.0
-400.0   0.0   0.0
-450.0   30.0   0.0
-450.0   0.0   16.666666666666668
-400.0   0.0   0.0
-400.0   30.0   0.0
-450.0   30.0   0.0
-400.0   30.0   16.666666666666668
-450.0   0.0   16.666666666666668
-450.0   30.0   16.666666666666668
-400.0   30.0   16.666666666666668
-450.0   30.0   0.0
-450.0   0.0   16.666666666666668
-400.0   30.0   16.666666666666668
-400.0   0.0   16.666666666666668
-400.0   0.0   0.0
-450.0   0.0   16.666666666666668
-400.0   30.0   16.666666666666668
-400.0   0.0   0.0
-450.0   30.0   0.0
-450.0   0.0   16.666666666666668
-400.0   0.0   16.666666666666668
-450.0   30.0   16.666666666666668
[...]
          <PointData>  
             <DataArray type="Float64" NumberOfComponents="3" Name="Strains" format="ascii">   
-8.811470777282581e-05   0.0   -5.784762011345338e-05
-8.811470777282581e-05   0.0   -5.784762011345338e-05
-8.811470777282581e-05   0.0   -5.784762011345338e-05
-8.811470777282581e-05   0.0   -5.784762011345338e-05
-5.606733686609988e-05   9.759060494663735e-06   1.4201010278879698e-06
-5.606733686609988e-05   9.759060494663735e-06   1.4201010278879698e-06
-5.606733686609988e-05   9.759060494663735e-06   1.4201010278879698e-06
-5.606733686609988e-05   9.759060494663735e-06   1.4201010278879698e-06
-5.495745030111076e-05   0.0   -5.459908309714204e-05
-5.495745030111076e-05   0.0   -5.459908309714204e-05
-5.495745030111076e-05   0.0   -5.459908309714204e-05
-5.495745030111076e-05   0.0   -5.459908309714204e-05
-9.221490587969132e-05   1.1712495372744302e-05   4.6917897684591535e-07
-9.221490587969132e-05   1.1712495372744302e-05   4.6917897684591535e-07
-9.221490587969132e-05   1.1712495372744302e-05   4.6917897684591535e-07
-9.221490587969132e-05   1.1712495372744302e-05   4.6917897684591535e-07
-7.153607903696816e-05   2.7071141802594446e-06   -2.8592303712201764e-05
-7.153607903696816e-05   2.7071141802594446e-06   -2.8592303712201764e-05
-7.153607903696816e-05   2.7071141802594446e-06   -2.8592303712201764e-05
-7.153607903696816e-05   2.7071141802594446e-06   -2.8592303712201764e-05
-9.221490587969149e-05   0.0   -6.162658032078864e-05
-9.221490587969149e-05   0.0   -6.162658032078864e-05
-9.221490587969149e-05   0.0   -6.162658032078864e-05
-9.221490587969149e-05   0.0   -6.162658032078864e-05
-5.495745030111076e-05   1.1712495372744316e-05   7.496676200492502e-06
-5.495745030111076e-05   1.1712495372744316e-05   7.496676200492502e-06
-5.495745030111076e-05   1.1712495372744316e-05   7.496676200492502e-06
-5.495745030111076e-05   1.1712495372744316e-05   7.496676200492502e-06
-5.511129806235458e-05   0.0   -5.5935169433819757e-05
-5.511129806235458e-05   0.0   -5.5935169433819757e-05
-5.511129806235458e-05   0.0   -5.5935169433819757e-05
-5.511129806235458e-05   0.0   -5.5935169433819757e-05
-9.509391057787916e-05   1.2548479668886888e-05   3.1734302907226813e-06
-9.509391057787916e-05   1.2548479668886888e-05   3.1734302907226813e-06
-9.509391057787916e-05   1.2548479668886888e-05   3.1734302907226813e-06
-9.509391057787916e-05   1.2548479668886888e-05   3.1734302907226813e-06
-7.36631019710229e-05   4.742842405807393e-06   -2.7861201696190033e-05
-7.36631019710229e-05   4.742842405807393e-06   -2.7861201696190033e-05
-7.36631019710229e-05   4.742842405807393e-06   -2.7861201696190033e-05
-7.36631019710229e-05   4.742842405807393e-06   -2.7861201696190033e-05
-9.509391057787933e-05   0.0   -6.34642572351519e-05
-9.509391057787933e-05   0.0   -6.34642572351519e-05
-9.509391057787933e-05   0.0   -6.34642572351519e-05
-9.509391057787933e-05   0.0   -6.34642572351519e-05
-5.511129806235458e-05   1.2548479668886915e-05   1.0702518092054806e-05
-5.511129806235458e-05   1.2548479668886915e-05   1.0702518092054806e-05
-5.511129806235458e-05   1.2548479668886915e-05   1.0702518092054806e-05
-5.511129806235458e-05   1.2548479668886915e-05   1.0702518092054806e-05
-5.508104302366178e-05   0.0   -5.6278670412889387e-05
-5.508104302366178e-05   0.0   -5.6278670412889387e-05
-5.508104302366178e-05   0.0   -5.6278670412889387e-05
-5.508104302366178e-05   0.0   -5.6278670412889387e-05
-0.00010129721312654369   1.4296246229895956e-05   1.217053202064313e-05
-0.00010129721312654369   1.4296246229895956e-05   1.217053202064313e-05
-0.00010129721312654369   1.4296246229895956e-05   1.217053202064313e-05
-0.00010129721312654369   1.4296246229895956e-05   1.217053202064313e-05
-7.508747680077042e-05   5.987989018552089e-06   -2.6527407528839287e-05
-7.508747680077042e-05   5.987989018552089e-06   -2.6527407528839287e-05
-7.508747680077042e-05   5.987989018552089e-06   -2.6527407528839287e-05
-7.508747680077042e-05   5.987989018552089e-06   -2.6527407528839287e-05
-5.6067336866099973e-05   0.0   -5.1992183816655134e-05
-5.6067336866099973e-05   0.0   -5.1992183816655134e-05
-5.6067336866099973e-05   0.0   -5.1992183816655134e-05
-5.6067336866099973e-05   0.0   -5.1992183816655134e-05
-2.5534689006917492e-05   3.578784418787587e-06   1.0428332665881837e-06
-2.5534689006917492e-05   3.578784418787587e-06   1.0428332665881837e-06
-2.5534689006917492e-05   3.578784418787587e-06   1.0428332665881837e-06
-2.5534689006917492e-05   3.578784418787587e-06   1.0428332665881837e-06
-2.4557789629965342e-05   0.0   -5.154156849151253e-05
-2.4557789629965342e-05   0.0   -5.154156849151253e-05
-2.4557789629965342e-05   0.0   -5.154156849151253e-05
-2.4557789629965342e-05   0.0   -5.154156849151253e-05
-5.495745030111076e-05   5.0958576760491914e-06   -3.932981978566348e-06
-5.495745030111076e-05   5.0958576760491914e-06   -3.932981978566348e-06
-5.495745030111076e-05   5.0958576760491914e-06   -3.932981978566348e-06
-5.495745030111076e-05   5.0958576760491914e-06   -3.932981978566348e-06
-4.031256324803259e-05   3.7551277095216625e-07   -2.550892012397158e-05
-4.031256324803259e-05   3.7551277095216625e-07   -2.550892012397158e-05
-4.031256324803259e-05   3.7551277095216625e-07   -2.550892012397158e-05
-4.031256324803259e-05   3.7551277095216625e-07   -2.550892012397158e-05
-5.495745030111071e-05   0.0   -5.459908309714199e-05
-5.495745030111071e-05   0.0   -5.459908309714199e-05
-5.495745030111071e-05   0.0   -5.459908309714199e-05
-5.495745030111071e-05   0.0   -5.459908309714199e-05
-2.4557789629965342e-05   5.0958576760491914e-06   -8.754673729368415e-07
-2.4557789629965342e-05   5.0958576760491914e-06   -8.754673729368415e-07
-2.4557789629965342e-05   5.0958576760491914e-06   -8.754673729368415e-07
-2.4557789629965342e-05   5.0958576760491914e-06   -8.754673729368415e-07
-2.4008666051393805e-05   0.0   -5.218831806579233e-05
-2.4008666051393805e-05   0.0   -5.218831806579233e-05
-2.4008666051393805e-05   0.0   -5.218831806579233e-05
-2.4008666051393805e-05   0.0   -5.218831806579233e-05
-5.511129806235458e-05   6.244752280045701e-06   -4.097449415551823e-06
-5.511129806235458e-05   6.244752280045701e-06   -4.097449415551823e-06
-5.511129806235458e-05   6.244752280045701e-06   -4.097449415551823e-06
-5.511129806235458e-05   6.244752280045701e-06   -4.097449415551823e-06
-3.94830581762522e-05   2.0089708594580924e-06   -2.76030470400363e-05
-3.94830581762522e-05   2.0089708594580924e-06   -2.76030470400363e-05
-3.94830581762522e-05   2.0089708594580924e-06   -2.76030470400363e-05
-3.94830581762522e-05   2.0089708594580924e-06   -2.76030470400363e-05
-5.511129806235458e-05   0.0   -5.5935169433819757e-05
-5.511129806235458e-05   0.0   -5.5935169433819757e-05
-5.511129806235458e-05   0.0   -5.5935169433819757e-05
-5.511129806235458e-05   0.0   -5.5935169433819757e-05
-2.4008666051393805e-05   6.244752280045701e-06   -3.5059804752438697e-07
-2.4008666051393805e-05   6.244752280045701e-06   -3.5059804752438697e-07
-2.4008666051393805e-05   6.244752280045701e-06   -3.5059804752438697e-07
-2.4008666051393805e-05   6.244752280045701e-06   -3.5059804752438697e-07
-2.350845737362469e-05   0.0   -5.191860902473577e-05
-2.350845737362469e-05   0.0   -5.191860902473577e-05
-2.350845737362469e-05   0.0   -5.191860902473577e-05
-2.350845737362469e-05   0.0   -5.191860902473577e-05
-5.5081043023661636e-05   7.266768980255945e-06   -3.6576943294942317e-06
-5.5081043023661636e-05   7.266768980255945e-06   -3.6576943294942317e-06
-5.5081043023661636e-05   7.266768980255945e-06   -3.6576943294942317e-06
-5.5081043023661636e-05   7.266768980255945e-06   -3.6576943294942317e-06
-3.9309877717989624e-05   3.3471336742366242e-06   -2.759118865533618e-05
-3.9309877717989624e-05   3.3471336742366242e-06   -2.759118865533618e-05
-3.9309877717989624e-05   3.3471336742366242e-06   -2.759118865533618e-05
-3.9309877717989624e-05   3.3471336742366242e-06   -2.759118865533618e-05
-2.5534689006917536e-05   0.0   -4.984491316538257e-05
-2.5534689006917536e-05   0.0   -4.984491316538257e-05
-2.5534689006917536e-05   0.0   -4.984491316538257e-05
-2.5534689006917536e-05   0.0   -4.984491316538257e-05
3.3119515204484274e-06   -4.5883749773851926e-07   -2.0424814517490288e-06
3.3119515204484274e-06   -4.5883749773851926e-07   -2.0424814517490288e-06
3.3119515204484274e-06   -4.5883749773851926e-07   -2.0424814517490288e-06
3.3119515204484274e-06   -4.5883749773851926e-07   -2.0424814517490288e-06
3.936034150392167e-06   0.0   -5.099942451445749e-05
3.936034150392167e-06   0.0   -5.099942451445749e-05
3.936034150392167e-06   0.0   -5.099942451445749e-05
3.936034150392167e-06   0.0   -5.099942451445749e-05
-2.4557789629965342e-05   9.035732950914274e-07   -4.05186219091667e-06
-2.4557789629965342e-05   9.035732950914274e-07   -4.05186219091667e-06
-2.4557789629965342e-05   9.035732950914274e-07   -4.05186219091667e-06
-2.4557789629965342e-05   9.035732950914274e-07   -4.05186219091667e-06
-1.0799327428262659e-05   -9.620927908959135e-07   -2.5863232875495295e-05
-1.0799327428262659e-05   -9.620927908959135e-07   -2.5863232875495295e-05
-1.0799327428262659e-05   -9.620927908959135e-07   -2.5863232875495295e-05
-1.0799327428262659e-05   -9.620927908959135e-07   -2.5863232875495295e-05
-2.4557789629965342e-05   0.0   -5.154156849151253e-05
-2.4557789629965342e-05   0.0   -5.154156849151253e-05
-2.4557789629965342e-05   0.0   -5.154156849151253e-05
-2.4557789629965342e-05   0.0   -5.154156849151253e-05
3.936034150392173e-06   9.035732950914409e-07   -3.5097182138617996e-06
3.936034150392173e-06   9.035732950914409e-07   -3.5097182138617996e-06
3.936034150392173e-06   9.035732950914409e-07   -3.5097182138617996e-06
3.936034150392173e-06   9.035732950914409e-07   -3.5097182138617996e-06
4.428750660908866e-06   0.0   -5.092637444946619e-05
4.428750660908866e-06   0.0   -5.092637444946619e-05
4.428750660908866e-06   0.0   -5.092637444946619e-05
4.428750660908866e-06   0.0   -5.092637444946619e-05
-2.4008666051393764e-05   2.1032393605434065e-06   -4.792623545287856e-06
-2.4008666051393764e-05   2.1032393605434065e-06   -4.792623545287856e-06
-2.4008666051393764e-05   2.1032393605434065e-06   -4.792623545287856e-06
-2.4008666051393764e-05   2.1032393605434065e-06   -4.792623545287856e-06
-1.0064519484528233e-05   5.126617017052134e-07   -2.707852122809421e-05
-1.0064519484528233e-05   5.126617017052134e-07   -2.707852122809421e-05
-1.0064519484528233e-05   5.126617017052134e-07   -2.707852122809421e-05
-1.0064519484528233e-05   5.126617017052134e-07   -2.707852122809421e-05
-2.4008666051393805e-05   0.0   -5.218831806579233e-05
-2.4008666051393805e-05   0.0   -5.218831806579233e-05
-2.4008666051393805e-05   0.0   -5.218831806579233e-05
-2.4008666051393805e-05   0.0   -5.218831806579233e-05
4.428750660908874e-06   2.10323936054342e-06   -3.530679928961823e-06
4.428750660908874e-06   2.10323936054342e-06   -3.530679928961823e-06
4.428750660908874e-06   2.10323936054342e-06   -3.530679928961823e-06
4.428750660908874e-06   2.10323936054342e-06   -3.530679928961823e-06
5.091323994773598e-06   0.0   -4.982299471603122e-05
5.091323994773598e-06   0.0   -4.982299471603122e-05
5.091323994773598e-06   0.0   -4.982299471603122e-05
5.091323994773598e-06   0.0   -4.982299471603122e-05
-2.350845737362467e-05   3.492690514507498e-06   -4.252306744071942e-06
-2.350845737362467e-05   3.492690514507498e-06   -4.252306744071942e-06
-2.350845737362467e-05   3.492690514507498e-06   -4.252306744071942e-06
-2.350845737362467e-05   3.492690514507498e-06   -4.252306744071942e-06
-9.458671028310083e-06   1.9711027914675157e-06   -2.6755664685772243e-05
-9.458671028310083e-06   1.9711027914675157e-06   -2.6755664685772243e-05
-9.458671028310083e-06   1.9711027914675157e-06   -2.6755664685772243e-05
-9.458671028310083e-06   1.9711027914675157e-06   -2.6755664685772243e-05
3.3119515204484333e-06   0.0   -5.012021566402568e-05
3.3119515204484333e-06   0.0   -5.012021566402568e-05
3.3119515204484333e-06   0.0   -5.012021566402568e-05
3.3119515204484333e-06   0.0   -5.012021566402568e-05
3.462551490354597e-05   -4.061225247405567e-06   -3.676785073064226e-07
3.462551490354597e-05   -4.061225247405567e-06   -3.676785073064226e-07
3.462551490354597e-05   -4.061225247405567e-06   -3.676785073064226e-07
3.462551490354597e-05   -4.061225247405567e-06   -3.676785073064226e-07
3.468799026798489e-05   0.0   -5.283620722424017e-05
3.468799026798489e-05   0.0   -5.283620722424017e-05
3.468799026798489e-05   0.0   -5.283620722424017e-05
3.468799026798489e-05   0.0   -5.283620722424017e-05
3.93603415039218e-06   -3.061304516304171e-06   2.53835681530175e-07
3.93603415039218e-06   -3.061304516304171e-06   2.53835681530175e-07
3.93603415039218e-06   -3.061304516304171e-06   2.53835681530175e-07
3.93603415039218e-06   -3.061304516304171e-06   2.53835681530175e-07
1.8999970894216662e-05   -2.2633263001787393e-06   -2.5331512487852528e-05
1.8999970894216662e-05   -2.2633263001787393e-06   -2.5331512487852528e-05
1.8999970894216662e-05   -2.2633263001787393e-06   -2.5331512487852528e-05
1.8999970894216662e-05   -2.2633263001787393e-06   -2.5331512487852528e-05
3.93603415039218e-06   0.0   -5.099942451445767e-05
3.93603415039218e-06   0.0   -5.099942451445767e-05
3.93603415039218e-06   0.0   -5.099942451445767e-05
3.93603415039218e-06   0.0   -5.099942451445767e-05
3.468799026798489e-05   -3.061304516304171e-06   -1.5829470282523265e-06
3.468799026798489e-05   -3.061304516304171e-06   -1.5829470282523265e-06
3.468799026798489e-05   -3.061304516304171e-06   -1.5829470282523265e-06
3.468799026798489e-05   -3.061304516304171e-06   -1.5829470282523265e-06
3.454020686997757e-05   0.0   -5.208173262048836e-05
3.454020686997757e-05   0.0   -5.208173262048836e-05
3.454020686997757e-05   0.0   -5.208173262048836e-05
3.454020686997757e-05   0.0   -5.208173262048836e-05
4.428750660908874e-06   -1.9255969517034747e-06   -7.406141010184682e-07
4.428750660908874e-06   -1.9255969517034747e-06   -7.406141010184682e-07
4.428750660908874e-06   -1.9255969517034747e-06   -7.406141010184682e-07
4.428750660908874e-06   -1.9255969517034747e-06   -7.406141010184682e-07
1.9238120510184874e-05   -9.019234216922444e-07   -2.6037101301151842e-05
1.9238120510184874e-05   -9.019234216922444e-07   -2.6037101301151842e-05
1.9238120510184874e-05   -9.019234216922444e-07   -2.6037101301151842e-05
1.9238120510184874e-05   -9.019234216922444e-07   -2.6037101301151842e-05
4.42875066090887e-06   0.0   -5.092637444946624e-05
4.42875066090887e-06   0.0   -5.092637444946624e-05
4.42875066090887e-06   0.0   -5.092637444946624e-05
4.42875066090887e-06   0.0   -5.092637444946624e-05
3.454020686997757e-05   -1.9255969517034747e-06   -1.8959722720405487e-06
3.454020686997757e-05   -1.9255969517034747e-06   -1.8959722720405487e-06
3.454020686997757e-05   -1.9255969517034747e-06   -1.8959722720405487e-06
3.454020686997757e-05   -1.9255969517034747e-06   -1.8959722720405487e-06
3.520989644507439e-05   0.0   -5.0062698983997354e-05
3.520989644507439e-05   0.0   -5.0062698983997354e-05
3.520989644507439e-05   0.0   -5.0062698983997354e-05
3.520989644507439e-05   0.0   -5.0062698983997354e-05
5.0913239947736065e-06   -3.995071132767528e-07   3.7462603446998976e-07
5.0913239947736065e-06   -3.995071132767528e-07   3.7462603446998976e-07
5.0913239947736065e-06   -3.995071132767528e-07   3.7462603446998976e-07
5.0913239947736065e-06   -3.995071132767528e-07   3.7462603446998976e-07
1.9819323552991614e-05   7.197295545574361e-07   -2.484358189659385e-05
1.9819323552991614e-05   7.197295545574361e-07   -2.484358189659385e-05
1.9819323552991614e-05   7.197295545574361e-07   -2.484358189659385e-05
1.9819323552991614e-05   7.197295545574361e-07   -2.484358189659385e-05
3.462551490354597e-05   0.0   -5.2556950812469024e-05
3.462551490354597e-05   0.0   -5.2556950812469024e-05
3.462551490354597e-05   0.0   -5.2556950812469024e-05
3.462551490354597e-05   0.0   -5.2556950812469024e-05
7.817683139686293e-05   -1.0295796335177429e-05   1.3851098875286525e-05
7.817683139686293e-05   -1.0295796335177429e-05   1.3851098875286525e-05
7.817683139686293e-05   -1.0295796335177429e-05   1.3851098875286525e-05
7.817683139686293e-05   -1.0295796335177429e-05   1.3851098875286525e-05
7.342183676005354e-05   0.0   -5.809197091334377e-05
7.342183676005354e-05   0.0   -5.809197091334377e-05
7.342183676005354e-05   0.0   -5.809197091334377e-05
7.342183676005354e-05   0.0   -5.809197091334377e-05
3.468799026798489e-05   -8.759606148505997e-06   1.1720203595874226e-05
3.468799026798489e-05   -8.759606148505997e-06   1.1720203595874226e-05
3.468799026798489e-05   -8.759606148505997e-06   1.1720203595874226e-05
3.468799026798489e-05   -8.759606148505997e-06   1.1720203595874226e-05
5.402367583179975e-05   -4.612516750728961e-06   -2.299419264915006e-05
5.402367583179975e-05   -4.612516750728961e-06   -2.299419264915006e-05
5.402367583179975e-05   -4.612516750728961e-06   -2.299419264915006e-05
5.402367583179975e-05   -4.612516750728961e-06   -2.299419264915006e-05
3.468799026798486e-05   0.0   -5.283620722424013e-05
3.468799026798486e-05   0.0   -5.283620722424013e-05
3.468799026798486e-05   0.0   -5.283620722424013e-05
3.468799026798486e-05   0.0   -5.283620722424013e-05
7.342183676005328e-05   -8.75960614850597e-06   6.464439906770595e-06
7.342183676005328e-05   -8.75960614850597e-06   6.464439906770595e-06
7.342183676005328e-05   -8.75960614850597e-06   6.464439906770595e-06
7.342183676005328e-05   -8.75960614850597e-06   6.464439906770595e-06
7.122947103040686e-05   0.0   -5.688421559955556e-05
7.122947103040686e-05   0.0   -5.688421559955556e-05
7.122947103040686e-05   0.0   -5.688421559955556e-05
7.122947103040686e-05   0.0   -5.688421559955556e-05
3.454020686997757e-05   -8.004138298445328e-06   9.067040980227132e-06
3.454020686997757e-05   -8.004138298445328e-06   9.067040980227132e-06
3.454020686997757e-05   -8.004138298445328e-06   9.067040980227132e-06
3.454020686997757e-05   -8.004138298445328e-06   9.067040980227132e-06
5.295873064919585e-05   -3.3733403127628295e-06   -2.4408977443212842e-05
5.295873064919585e-05   -3.3733403127628295e-06   -2.4408977443212842e-05
5.295873064919585e-05   -3.3733403127628295e-06   -2.4408977443212842e-05
5.295873064919585e-05   -3.3733403127628295e-06   -2.4408977443212842e-05
3.454020686997757e-05   0.0   -5.208173262048836e-05
3.454020686997757e-05   0.0   -5.208173262048836e-05
3.454020686997757e-05   0.0   -5.208173262048836e-05
3.454020686997757e-05   0.0   -5.208173262048836e-05
7.122947103040662e-05   -8.0041382984453e-06   4.2645580011599116e-06
7.122947103040662e-05   -8.0041382984453e-06   4.2645580011599116e-06
7.122947103040662e-05   -8.0041382984453e-06   4.2645580011599116e-06
7.122947103040662e-05   -8.0041382984453e-06   4.2645580011599116e-06
6.796510978901098e-05   0.0   -5.37949672495573e-05
6.796510978901098e-05   0.0   -5.37949672495573e-05
6.796510978901098e-05   0.0   -5.37949672495573e-05
6.796510978901098e-05   0.0   -5.37949672495573e-05
3.520989644507439e-05   -6.220447109266729e-06   4.5293232558971444e-06
3.520989644507439e-05   -6.220447109266729e-06   4.5293232558971444e-06
3.520989644507439e-05   -6.220447109266729e-06   4.5293232558971444e-06
3.520989644507439e-05   -6.220447109266729e-06   4.5293232558971444e-06
5.125265832949433e-05   -1.427695524224198e-06   -2.5084264169161575e-05
5.125265832949433e-05   -1.427695524224198e-06   -2.5084264169161575e-05
5.125265832949433e-05   -1.427695524224198e-06   -2.5084264169161575e-05
5.125265832949433e-05   -1.427695524224198e-06   -2.5084264169161575e-05
-7.643886827158262e-05   9.759060494663721e-06   -5.0165597483217454e-05
-7.643886827158262e-05   9.759060494663721e-06   -5.0165597483217454e-05
-7.643886827158262e-05   9.759060494663721e-06   -5.0165597483217454e-05
-7.643886827158262e-05   9.759060494663721e-06   -5.0165597483217454e-05