<?xml version="1.0"?> 
<VTKFile type="UnstructuredGrid"> 
   <UnstructuredGrid> 
      <Piece NumberOfPoints="6000"  NumberOfCells="1500">  
          <Points>  
             <DataArray type="Float64" NumberOfComponents="3" format="ascii">   
-500.0   0.0   0.0
-450.0   0.0   0.0
-500.0   30.0   0.0
-500.0   0.0   16.666666666666668
-450.0   0.0   0.0
-450.0   30.0   0.0
-500.0   30.0   0.0
-450.0   30.0   16.666666666666668
-500.0   0.0   16.666666666666668
-500.0   30.0   16.666666666666668
-450.0   30.0   16.666666666666668
-500.0   30.0   0.0
-500.0   0.0   16.666666666666668
-450.0   30.0   16.666666666666668
-450.0   0.0   16.666666666666668
-450.0   0.0   0.0
-500.0   0.0   16.666666666666668
-450.0   30.0   16.666666666666668
-450.0   0.0   0.0
-500.0   30.0   0.0
-500.0   0.0   16.666666666666668
-450.0   0.0   16.666666666666668
-500.0   30.0   16.666666666666668
-500.0   0.0   33.333333333333336
-450.0   0.0   16.666666666666668
-450.0   30.0   16.666666666666668
-500.0   30.0   16.666666666666668
-450.0   30.0   33.333333333333336
-500.0   0.0   33.333333333333336
-500.0   30.0   33.333333333333336
-450.0   30.0   33.333333333333336
-500.0   30.0   16.666666666666668
-500.0   0.0   33.333333333333336
-450.0   30.0   33.333333333333336
-450.0   0.0   33.333333333333336
-450.0   0.0   16.666666666666668
-500.0   0.0   33.333333333333336
-450.0   30.0   33.333333333333336
-450.0   0.0   16.666666666666668
-500.0   30.0   16.666666666666668
-500.0   0.0   33.333333333333336
-450.0   0.0   33.333333333333336
-500.0   30.0   33.333333333333336
-500.0   0.0   50.0
-450.0   0.0   33.333333333333336
-450.0   30.0   33.333333333333336
-500.0   30.0   33.333333333333336
-450.0   30.0   50.0
-500.0   0.0   50.0
-500.0   30.0   50.0
-450.0   30.0   50.0
-500.0   30.0   33.333333333333336
-500.0   0.0   50.0
-450.0   30.0   50.0
-450.0   0.0   50.0
-450.0   0.0   33.333333333333336
-500.0   0.0   50.0
-450.0   30.0   50.0
-450.0   0.0   33.333333333333336
-500.0   30.0   33.333333333333336
-500.0   30.0   0.0
-450.0   30.0   0.0
-500.0   60.0   0.0
-500.0   30.0   16.666666666666668
-450.0   30.0   0.0
-450.0   60.0   0.0
-500.0   60.0   0.0
-450.0   60.0   16.666666666666668
-500.0   30.0   16.666666666666668
-500.0   60.0   16.666666666666668
-450.0   60.0   16.666666666666668
-500.0   60.0   0.0
-500.0   30.0   16.666666666666668
-450.0   60.0   16.666666666666668
-450.0   30.0   16.666666666666668
-450.0   30.0   0.0
-500.0   30.0   16.666666666666668
-450.0   60.0   16.666666666666668
-450.0   30.0   0.0
-500.0   60.0   0.0
-500.0   30.0   16.666666666666668
-450.0   30.0   16.666666666666668
-500.0   60.0   16.666666666666668
-500.0   30.0   33.333333333333336
-450.0   30.0   16.666666666666668
-450.0   60.0   16.666666666666668
-500.0   60.0   16.666666666666668
-450.0   60.0   33.333333333333336
-500.0   30.0   33.333333333333336
-500.0   60.0   33.333333333333336
-450.0   60.0   33.333333333333336
-500.0   60.0   16.666666666666668
-500.0   30.0   33.333333333333336
-450.0   60.0   33.333333333333336
-450.0   30.0   33.333333333333336
-450.0   30.0   16.666666666666668
-500.0   30.0   33.333333333333336
-450.0   60.0   33.333333333333336
-450.0   30.0   16.666666666666668
-500.0   60.0   16.666666666666668
-500.0   30.0   33.333333333333336
-450.0   30.0   33.333333333333336
-500.0   60.0   33.333333333333336
-500.0   30.0   50.0
-450.0   30.0   33.333333333333336
-450.0   60.0   33.333333333333336
-500.0   60.0   33.333333333333336
-450.0   60.0   50.0
-500.0   30.0   50.0
-500.0   60.0   50.0
-450.0   60.0   50.0
-500.0   60.0   33.333333333333336
-500.0   30.0   50.0
-450.0   60.0   50.0
-450.0   30.0   50.0
-450.0   30.0   33.333333333333336
-500.0   30.0   50.0
-450.0   60.0   50.0
-450.0   30.0   33.333333333333336
-500.0   60.0   33.333333333333336
-500.0   60.0   0.0
-450.0   60.0   0.0
-500.0   90.0   0.0
-500.0   60.0   16.666666666666668
-450.0   60.0   0.0
-450.0   90.0   0.0
-500.0   90.0   0.0
-450.0   90.0   16.666666666666668
-500.0   60.0   16.666666666666668
-500.0   90.0   16.666666666666668
-450.0   90.0   16.666666666666668
-500.0   90.0   0.0
-500.0   60.0   16.666666666666668
-450.0   90.0   16.666666666666668
-450.0   60.0   16.666666666666668
-450.0   60.0   0.0
-500.0   60.0   16.666666666666668
-450.0   90.0   16.666666666666668
-450.0   60.0   0.0
-500.0   90.0   0.0
-500.0   60.0   16.666666666666668
-450.0   60.0   16.666666666666668
-500.0   90.0   16.666666666666668
-500.0   60.0   33.333333333333336
-450.0   60.0   16.666666666666668
-450.0   90.0   16.666666666666668
-500.0   90.0   16.666666666666668
-450.0   90.0   33.333333333333336
-500.0   60.0   33.333333333333336
-500.0   90.0   33.333333333333336
-450.0   90.0   33.333333333333336
-500.0   90.0   16.666666666666668
-500.0   60.0   33.333333333333336
-450.0   90.0   33.333333333333336
-450.0   60.0   33.333333333333336
-450.0   60.0   16.666666666666668
-500.0   60.0   33.333333333333336
-450.0   90.0   33.333333333333336
-450.0   60.0   16.666666666666668
-500.0   90.0   16.666666666666668
-500.0   60.0   33.333333333333336
-450.0   60.0   33.333333333333336
-500.0   90.0   33.333333333333336
-500.0   60.0   50.0
-450.0   60.0   33.333333333333336
-450.0   90.0   33.333333333333336
-500.0   90.0   33.333333333333336
-450.0   90.0   50.0
-500.0   60.0   50.0
-500.0   90.0   50.0
-450.0   90.0   50.0
-500.0   90.0   33.333333333333336
-500.0   60.0   50.0
-450.0   90.0   50.0
-450.0   60.0   50.0
-450.0   60.0   33.333333333333336
-500.0   60.0   50.0
-450.0   90.0   50.0
-450.0   60.0   33.333333333333336
-500.0   90.0   33.333333333333336
-500.0   90.0   0.0
-450.0   90.0   0.0
-500.0   120.0   0.0
-500.0   90.0   16.666666666666668
-450.0   90.0   0.0
-450.0   120.0   0.0
-500.0   120.0   0.0
-450.0   120.0   16.666666666666668
-500.0   90.0   16.666666666666668
-500.0   120.0   16.666666666666668
-450.0   120.0   16.666666666666668
-500.0   120.0   0.0
-500.0   90.0   16.666666666666668
-450.0   120.0   16.666666666666668
-450.0   90.0   16.666666666666668
-450.0   90.0   0.0
-500.0   90.0   16.666666666666668
-450.0   120.0   16.666666666666668
-450.0   90.0   0.0
-500.0   120.0   0.0
-500.0   90.0   16.666666666666668
-450.0   90.0   16.666666666666668
-500.0   120.0   16.666666666666668
-500.0   90.0   33.333333333333336
-450.0   90.0   16.666666666666668
-450.0   120.0   16.666666666666668
-500.0   120.0   16.666666666666668
-450.0   120.0   33.333333333333336
-500.0   90.0   33.333333333333336
-500.0   120.0   33.333333333333336
-450.0   120.0   33.333333333333336
-500.0   120.0   16.666666666666668
-500.0   90.0   33.333333333333336
-450.0   120.0   33.333333333333336
-450.0   90.0   33.333333333333336
-450.0   90.0   16.666666666666668
-500.0   90.0   33.333333333333336
-450.0   120.0   33.333333333333336
-450.0   90.0   16.666666666666668
-500.0   120.0   16.666666666666668
-500.0   90.0   33.333333333333336
-450.0   90.0   33.333333333333336
-500.0   120.0   33.333333333333336
-500.0   90.0   50.0
-450.0   90.0   33.333333333333336
-450.0   120.0   33.333333333333336
-500.0   120.0   33.333333333333336
-450.0   120.0   50.0
-500.0   90.0   50.0
-500.0   120.0   50.0
-450.0   120.0   50.0
-500.0   120.0   33.333333333333336
-500.0   90.0   50.0
-450.0   120.0   50.0
-450.0   90.0   50.0
-450.0   90.0   33.333333333333336
-500.0   90.0   50.0
-450.0   120.0   50.0
-450.0   90.0   33.333333333333336
-500.0   120.0   33.333333333333336
-500.0   120.0   0.0
-450.0   120.0   0.0
-500.0   150.0   0.0
-500.0   120.0   16.666666666666668
-450.0   120.0   0.0
-450.0   150.0   0.0
-500.0   150.0   0.0
-450.0   150.0   16.666666666666668
-500.0   120.0   16.666666666666668
-500.0   150.0   16.666666666666668
-450.0   150.0   16.666666666666668
-500.0   150.0   0.0
-500.0   120.0   16.666666666666668
-450.0   150.0   16.666666666666668
-450.0   120.0   16.666666666666668
-450.0   120.0   0.0
-500.0   120.0   16.666666666666668
-450.0   150.0   16.666666666666668
-450.0   120.0   0.0
-500.0   150.0   0.0
-500.0   120.0   16.666666666666668
-450.0   120.0   16.666666666666668
-500.0   150.0   16.666666666666668
-500.0   120.0   33.333333333333336
-450.0   120.0   16.666666666666668
-450.0   150.0   16.666666666666668
-500.0   150.0   16.666666666666668
-450.0   150.0   33.333333333333336
-500.0   120.0   33.333333333333336
-500.0   150.0   33.333333333333336
-450.0   150.0   33.333333333333336
-500.0   150.0   16.666666666666668
-500.0   120.0   33.333333333333336
-450.0   150.0   33.333333333333336
-450.0   120.0   33.333333333333336
-450.0   120.0   16.666666666666668
-500.0   120.0   33.333333333333336
-450.0   150.0   33.333333333333336
-450.0   120.0   16.666666666666668
-500.0   150.0   16.666666666666668
-500.0   120.0   33.333333333333336
-450.0   120.0   33.333333333333336
-500.0   150.0   33.333333333333336
-500.0   120.0   50.0
-450.0   120.0   33.333333333333336
-450.0   150.0   33.333333333333336
-500.0   150.0   33.333333333333336
-450.0   150.0   50.0
-500.0   120.0   50.0
-500.0   150.0   50.0
-450.0   150.0   50.0
-500.0   150.0   33.333333333333336
-500.0   120.0   50.0
-450.0   150.0   50.0
-450.0   120.0   50.0
-450.0   120.0   33.333333333333336
-500.0   120.0   50.0
-450.0   150.0   50.0
-450.0   120.0   33.333333333333336
-500.0   150.0   33.333333333333336
-450.0   0.0   0.0
-400.0   0.0   0.0
-450.0   30.0   0.0
-450.0   0.0   16.666666666666668
-400.0   0.0   0.0
-400.0   30.0   0.0
-450.0   30.0   0.0
-400.0   30.0   16.666666666666668
-450.0   0.0   16.666666666666668
-450.0   30.0   16.666666666666668
-400.0   30.0   16.666666666666668
-450.0   30.0   0.0
-450.0   0.0   16.666666666666668
-400.0   30.0   16.666666666666668
-400.0   0.0   16.666666666666668
-400.0   0.0   0.0
-450.0   0.0   16.666666666666668
-400.0   30.0   16.666666666666668
-400.0   0.0   0.0
-450.0   30.0   0.0
-450.0   0.0   16.666666666666668
-400.0   0.0   16.666666666666668
-450.0   30.0   16.666666666666668
[...]
          <PointData>  
             <DataArray type="Float64" NumberOfComponents="3" Name="Strains" format="ascii">   
-7.559751794597485e-05   0.0   -4.966725020005163e-05
-7.559751794597485e-05   0.0   -4.966725020005163e-05
-7.559751794597485e-05   0.0   -4.966725020005163e-05
-7.559751794597485e-05   0.0   -4.966725020005163e-05
-4.8098975547873114e-05   8.367793695235006e-06   1.1843300139254828e-06
-4.8098975547873114e-05   8.367793695235006e-06   1.1843300139254828e-06
-4.8098975547873114e-05   8.367793695235006e-06   1.1843300139254828e-06
-4.8098975547873114e-05   8.367793695235006e-06   1.1843300139254828e-06
-4.714428092673293e-05   0.0   -4.688299571181028e-05
-4.714428092673293e-05   0.0   -4.688299571181028e-05
-4.714428092673293e-05   0.0   -4.688299571181028e-05
-4.714428092673293e-05   0.0   -4.688299571181028e-05
-7.911211086391918e-05   1.004510013621791e-05   3.696607684362872e-07
-7.911211086391918e-05   1.004510013621791e-05   3.696607684362872e-07
-7.911211086391918e-05   1.004510013621791e-05   3.696607684362872e-07
-7.911211086391918e-05   1.004510013621791e-05   3.696607684362872e-07
-6.137089943635378e-05   2.3202120735344586e-06   -2.456409210656263e-05
-6.137089943635378e-05   2.3202120735344586e-06   -2.456409210656263e-05
-6.137089943635378e-05   2.3202120735344586e-06   -2.456409210656263e-05
-6.137089943635378e-05   2.3202120735344586e-06   -2.456409210656263e-05
-7.911211086391932e-05   0.0   -5.291005579354104e-05
-7.911211086391932e-05   0.0   -5.291005579354104e-05
-7.911211086391932e-05   0.0   -5.291005579354104e-05
-7.911211086391932e-05   0.0   -5.291005579354104e-05
-4.714428092673293e-05   1.0045100136217924e-05   6.396720850167017e-06
-4.714428092673293e-05   1.0045100136217924e-05   6.396720850167017e-06
-4.714428092673293e-05   1.0045100136217924e-05   6.396720850167017e-06
-4.714428092673293e-05   1.0045100136217924e-05   6.396720850167017e-06
-4.7273502812162945e-05   0.0   -4.8029521847659395e-05
-4.7273502812162945e-05   0.0   -4.8029521847659395e-05
-4.7273502812162945e-05   0.0   -4.8029521847659395e-05
-4.7273502812162945e-05   0.0   -4.8029521847659395e-05
-8.157866113598286e-05   1.0762715138609805e-05   2.6881129422081426e-06
-8.157866113598286e-05   1.0762715138609805e-05   2.6881129422081426e-06
-8.157866113598286e-05   1.0762715138609805e-05   2.6881129422081426e-06
-8.157866113598286e-05   1.0762715138609805e-05   2.6881129422081426e-06
-6.319280683804103e-05   4.067111621568027e-06   -2.3937615444136515e-05
-6.319280683804103e-05   4.067111621568027e-06   -2.3937615444136515e-05
-6.319280683804103e-05   4.067111621568027e-06   -2.3937615444136515e-05
-6.319280683804103e-05   4.067111621568027e-06   -2.3937615444136515e-05
-8.1578661135983e-05   0.0   -5.4487150930825294e-05
-8.1578661135983e-05   0.0   -5.4487150930825294e-05
-8.1578661135983e-05   0.0   -5.4487150930825294e-05
-8.1578661135983e-05   0.0   -5.4487150930825294e-05
-4.7273502812162945e-05   1.0762715138609832e-05   9.145742025374028e-06
-4.7273502812162945e-05   1.0762715138609832e-05   9.145742025374028e-06
-4.7273502812162945e-05   1.0762715138609832e-05   9.145742025374028e-06
-4.7273502812162945e-05   1.0762715138609832e-05   9.145742025374028e-06
-4.724444631024763e-05   0.0   -4.832472204489191e-05
-4.724444631024763e-05   0.0   -4.832472204489191e-05
-4.724444631024763e-05   0.0   -4.832472204489191e-05
-4.724444631024763e-05   0.0   -4.832472204489191e-05
-8.689599485992356e-05   1.226376230679973e-05   1.0402934820488339e-05
-8.689599485992356e-05   1.226376230679973e-05   1.0402934820488339e-05
-8.689599485992356e-05   1.226376230679973e-05   1.0402934820488339e-05
-8.689599485992356e-05   1.226376230679973e-05   1.0402934820488339e-05
-6.44115537231152e-05   5.135357404944477e-06   -2.279409079974572e-05
-6.44115537231152e-05   5.135357404944477e-06   -2.279409079974572e-05
-6.44115537231152e-05   5.135357404944477e-06   -2.279409079974572e-05
-6.44115537231152e-05   5.135357404944477e-06   -2.279409079974572e-05
-4.8098975547873195e-05   0.0   -4.464657398291063e-05
-4.8098975547873195e-05   0.0   -4.464657398291063e-05
-4.8098975547873195e-05   0.0   -4.464657398291063e-05
-4.8098975547873195e-05   0.0   -4.464657398291063e-05
-2.1908850886842167e-05   3.067634500051786e-06   8.442144855054612e-07
-2.1908850886842167e-05   3.067634500051786e-06   8.442144855054612e-07
-2.1908850886842167e-05   3.067634500051786e-06   8.442144855054612e-07
-2.1908850886842167e-05   3.067634500051786e-06   8.442144855054612e-07
-2.1067984187190004e-05   0.0   -4.426120294235336e-05
-2.1067984187190004e-05   0.0   -4.426120294235336e-05
-2.1067984187190004e-05   0.0   -4.426120294235336e-05
-2.1067984187190004e-05   0.0   -4.426120294235336e-05
-4.714428092673293e-05   4.369654615761539e-06   -3.422501145905409e-06
-4.714428092673293e-05   4.369654615761539e-06   -3.422501145905409e-06
-4.714428092673293e-05   4.369654615761539e-06   -3.422501145905409e-06
-4.714428092673293e-05   4.369654615761539e-06   -3.422501145905409e-06
-3.458347986753154e-05   3.2114253379771806e-07   -2.1928062328729286e-05
-3.458347986753154e-05   3.2114253379771806e-07   -2.1928062328729286e-05
-3.458347986753154e-05   3.2114253379771806e-07   -2.1928062328729286e-05
-3.458347986753154e-05   3.2114253379771806e-07   -2.1928062328729286e-05
-4.714428092673289e-05   0.0   -4.688299571181024e-05
-4.714428092673289e-05   0.0   -4.688299571181024e-05
-4.714428092673289e-05   0.0   -4.688299571181024e-05
-4.714428092673289e-05   0.0   -4.688299571181024e-05
-2.1067984187190004e-05   4.369654615761539e-06   -8.007083764484884e-07
-2.1067984187190004e-05   4.369654615761539e-06   -8.007083764484884e-07
-2.1067984187190004e-05   4.369654615761539e-06   -8.007083764484884e-07
-2.1067984187190004e-05   4.369654615761539e-06   -8.007083764484884e-07
-2.05942014675926e-05   0.0   -4.481602839126801e-05
-2.05942014675926e-05   0.0   -4.481602839126801e-05
-2.05942014675926e-05   0.0   -4.481602839126801e-05
-2.05942014675926e-05   0.0   -4.481602839126801e-05
-4.7273502812162945e-05   5.3558224273189746e-06   -3.5640196067088296e-06
-4.7273502812162945e-05   5.3558224273189746e-06   -3.5640196067088296e-06
-4.7273502812162945e-05   5.3558224273189746e-06   -3.5640196067088296e-06
-4.7273502812162945e-05   5.3558224273189746e-06   -3.5640196067088296e-06
-3.38692411971627e-05   1.7224727671185592e-06   -2.3724445835588796e-05
-3.38692411971627e-05   1.7224727671185592e-06   -2.3724445835588796e-05
-3.38692411971627e-05   1.7224727671185592e-06   -2.3724445835588796e-05
-3.38692411971627e-05   1.7224727671185592e-06   -2.3724445835588796e-05
-4.7273502812162945e-05   0.0   -4.8029521847659395e-05
-4.7273502812162945e-05   0.0   -4.8029521847659395e-05
-4.7273502812162945e-05   0.0   -4.8029521847659395e-05
-4.7273502812162945e-05   0.0   -4.8029521847659395e-05
-2.05942014675926e-05   5.3558224273189746e-06   -3.505261503174422e-07
-2.05942014675926e-05   5.3558224273189746e-06   -3.505261503174422e-07
-2.05942014675926e-05   5.3558224273189746e-06   -3.505261503174422e-07
-2.05942014675926e-05   5.3558224273189746e-06   -3.505261503174422e-07
-2.016216846586115e-05   0.0   -4.458491603551252e-05
-2.016216846586115e-05   0.0   -4.458491603551252e-05
-2.016216846586115e-05   0.0   -4.458491603551252e-05
-2.016216846586115e-05   0.0   -4.458491603551252e-05
-4.7244446310247505e-05   6.233010015632251e-06   -3.187592304247758e-06
-4.7244446310247505e-05   6.233010015632251e-06   -3.187592304247758e-06
-4.7244446310247505e-05   6.233010015632251e-06   -3.187592304247758e-06
-4.7244446310247505e-05   6.233010015632251e-06   -3.187592304247758e-06
-3.371783563901204e-05   2.8705048434557e-06   -2.3714440319667785e-05
-3.371783563901204e-05   2.8705048434557e-06   -2.3714440319667785e-05
-3.371783563901204e-05   2.8705048434557e-06   -2.3714440319667785e-05
-3.371783563901204e-05   2.8705048434557e-06   -2.3714440319667785e-05
-2.1908850886842208e-05   0.0   -4.280599328287955e-05
-2.1908850886842208e-05   0.0   -4.280599328287955e-05
-2.1908850886842208e-05   0.0   -4.280599328287955e-05
-2.1908850886842208e-05   0.0   -4.280599328287955e-05
2.8327063272842873e-06   -3.940200081489157e-07   -1.8064765975580407e-06
2.8327063272842873e-06   -3.940200081489157e-07   -1.8064765975580407e-06
2.8327063272842873e-06   -3.940200081489157e-07   -1.8064765975580407e-06
2.8327063272842873e-06   -3.940200081489157e-07   -1.8064765975580407e-06
3.371160761881192e-06   0.0   -4.3796130219141275e-05
3.371160761881192e-06   0.0   -4.3796130219141275e-05
3.371160761881192e-06   0.0   -4.3796130219141275e-05
3.371160761881192e-06   0.0   -4.3796130219141275e-05
-2.1067984187190004e-05   7.751212053532273e-07   -3.529294693901361e-06
-2.1067984187190004e-05   7.751212053532273e-07   -3.529294693901361e-06
-2.1067984187190004e-05   7.751212053532273e-07   -3.529294693901361e-06
-2.1067984187190004e-05   7.751212053532273e-07   -3.529294693901361e-06
-9.268845062480486e-06   -8.251141135515614e-07   -2.223438537707426e-05
-9.268845062480486e-06   -8.251141135515614e-07   -2.223438537707426e-05
-9.268845062480486e-06   -8.251141135515614e-07   -2.223438537707426e-05
-9.268845062480486e-06   -8.251141135515614e-07   -2.223438537707426e-05
-2.1067984187190004e-05   0.0   -4.426120294235336e-05
-2.1067984187190004e-05   0.0   -4.426120294235336e-05
-2.1067984187190004e-05   0.0   -4.426120294235336e-05
-2.1067984187190004e-05   0.0   -4.426120294235336e-05
3.3711607618811975e-06   7.751212053532273e-07   -3.0642219706894155e-06
3.3711607618811975e-06   7.751212053532273e-07   -3.0642219706894155e-06
3.3711607618811975e-06   7.751212053532273e-07   -3.0642219706894155e-06
3.3711607618811975e-06   7.751212053532273e-07   -3.0642219706894155e-06
3.7966365835910507e-06   0.0   -4.3733186554344804e-05
3.7966365835910507e-06   0.0   -4.3733186554344804e-05
3.7966365835910507e-06   0.0   -4.3733186554344804e-05
3.7966365835910507e-06   0.0   -4.3733186554344804e-05
-2.0594201467592564e-05   1.8047363948718776e-06   -4.164631639295239e-06
-2.0594201467592564e-05   1.8047363948718776e-06   -4.164631639295239e-06
-2.0594201467592564e-05   1.8047363948718776e-06   -4.164631639295239e-06
-2.0594201467592564e-05   1.8047363948718776e-06   -4.164631639295239e-06
-8.635673801799472e-06   4.400136566737355e-07   -2.3276677439364894e-05
-8.635673801799472e-06   4.400136566737355e-07   -2.3276677439364894e-05
-8.635673801799472e-06   4.400136566737355e-07   -2.3276677439364894e-05
-8.635673801799472e-06   4.400136566737355e-07   -2.3276677439364894e-05
-2.05942014675926e-05   0.0   -4.481602839126801e-05
-2.05942014675926e-05   0.0   -4.481602839126801e-05
-2.05942014675926e-05   0.0   -4.481602839126801e-05
-2.05942014675926e-05   0.0   -4.481602839126801e-05
3.7966365835910575e-06   1.8047363948718776e-06   -3.081789802372122e-06
3.7966365835910575e-06   1.8047363948718776e-06   -3.081789802372122e-06
3.7966365835910575e-06   1.8047363948718776e-06   -3.081789802372122e-06
3.7966365835910575e-06   1.8047363948718776e-06   -3.081789802372122e-06
4.367877033094446e-06   0.0   -4.278667330203551e-05
4.367877033094446e-06   0.0   -4.278667330203551e-05
4.367877033094446e-06   0.0   -4.278667330203551e-05
4.367877033094446e-06   0.0   -4.278667330203551e-05
-2.016216846586113e-05   2.997071222461602e-06   -3.701506870586516e-06
-2.016216846586113e-05   2.997071222461602e-06   -3.701506870586516e-06
-2.016216846586113e-05   2.997071222461602e-06   -3.701506870586516e-06
-2.016216846586113e-05   2.997071222461602e-06   -3.701506870586516e-06
-8.113162217249058e-06   1.6911292410270139e-06   -2.299961876274586e-05
-8.113162217249058e-06   1.6911292410270139e-06   -2.299961876274586e-05
-8.113162217249058e-06   1.6911292410270139e-06   -2.299961876274586e-05
-8.113162217249058e-06   1.6911292410270139e-06   -2.299961876274586e-05
2.832706327284292e-06   0.0   -4.30424052877689e-05
2.832706327284292e-06   0.0   -4.30424052877689e-05
2.832706327284292e-06   0.0   -4.30424052877689e-05
2.832706327284292e-06   0.0   -4.30424052877689e-05
2.9692468548139855e-05   -3.482642950291062e-06   -3.657206898509104e-07
2.9692468548139855e-05   -3.482642950291062e-06   -3.657206898509104e-07
2.9692468548139855e-05   -3.482642950291062e-06   -3.657206898509104e-07
2.9692468548139855e-05   -3.482642950291062e-06   -3.657206898509104e-07
2.9749502752519506e-05   0.0   -4.537076997999218e-05
2.9749502752519506e-05   0.0   -4.537076997999218e-05
2.9749502752519506e-05   0.0   -4.537076997999218e-05
2.9749502752519506e-05   0.0   -4.537076997999218e-05
3.3711607618812034e-06   -2.624399601417935e-06   1.677730985890673e-07
3.3711607618812034e-06   -2.624399601417935e-06   1.677730985890673e-07
3.3711607618812034e-06   -2.624399601417935e-06   1.677730985890673e-07
3.3711607618812034e-06   -2.624399601417935e-06   1.677730985890673e-07
1.62911045399019e-05   -1.940303910186064e-06   -2.1775923946184516e-05
1.62911045399019e-05   -1.940303910186064e-06   -2.1775923946184516e-05
1.62911045399019e-05   -1.940303910186064e-06   -2.1775923946184516e-05
1.62911045399019e-05   -1.940303910186064e-06   -2.1775923946184516e-05
3.3711607618812034e-06   0.0   -4.3796130219141424e-05
3.3711607618812034e-06   0.0   -4.3796130219141424e-05
3.3711607618812034e-06   0.0   -4.3796130219141424e-05
3.3711607618812034e-06   0.0   -4.3796130219141424e-05
2.9749502752519506e-05   -2.624399601417935e-06   -1.4068666622616904e-06
2.9749502752519506e-05   -2.624399601417935e-06   -1.4068666622616904e-06
2.9749502752519506e-05   -2.624399601417935e-06   -1.4068666622616904e-06
2.9749502752519506e-05   -2.624399601417935e-06   -1.4068666622616904e-06
2.9625740450808623e-05   0.0   -4.472292286245351e-05
2.9625740450808623e-05   0.0   -4.472292286245351e-05
2.9625740450808623e-05   0.0   -4.472292286245351e-05
2.9625740450808623e-05   0.0   -4.472292286245351e-05
3.7966365835910575e-06   -1.6495605135143977e-06   -6.846801089822794e-07
3.7966365835910575e-06   -1.6495605135143977e-06   -6.846801089822794e-07
3.7966365835910575e-06   -1.6495605135143977e-06   -6.846801089822794e-07
3.7966365835910575e-06   -1.6495605135143977e-06   -6.846801089822794e-07
1.6498450606344915e-05   -7.723272027600702e-07   -2.238071013335794e-05
1.6498450606344915e-05   -7.723272027600702e-07   -2.238071013335794e-05
1.6498450606344915e-05   -7.723272027600702e-07   -2.238071013335794e-05
1.6498450606344915e-05   -7.723272027600702e-07   -2.238071013335794e-05
3.796636583591054e-06   0.0   -4.3733186554344844e-05
3.796636583591054e-06   0.0   -4.3733186554344844e-05
3.796636583591054e-06   0.0   -4.3733186554344844e-05
3.796636583591054e-06   0.0   -4.3733186554344844e-05
2.9625740450808623e-05   -1.6495605135143977e-06   -1.6744164170909114e-06
2.9625740450808623e-05   -1.6495605135143977e-06   -1.6744164170909114e-06
2.9625740450808623e-05   -1.6495605135143977e-06   -1.6744164170909114e-06
2.9625740450808623e-05   -1.6495605135143977e-06   -1.6744164170909114e-06
3.020300954799334e-05   0.0   -4.2990563441196755e-05
3.020300954799334e-05   0.0   -4.2990563441196755e-05
3.020300954799334e-05   0.0   -4.2990563441196755e-05
3.020300954799334e-05   0.0   -4.2990563441196755e-05
4.367877033094454e-06   -3.398168986019429e-07   2.7188088946254385e-07
4.367877033094454e-06   -3.398168986019429e-07   2.7188088946254385e-07
4.367877033094454e-06   -3.398168986019429e-07   2.7188088946254385e-07
4.367877033094454e-06   -3.398168986019429e-07   2.7188088946254385e-07
1.6999823065792185e-05   6.188525942901104e-07   -2.135656419410222e-05
1.6999823065792185e-05   6.188525942901104e-07   -2.135656419410222e-05
1.6999823065792185e-05   6.188525942901104e-07   -2.135656419410222e-05
1.6999823065792185e-05   6.188525942901104e-07   -2.135656419410222e-05
2.9692468548139855e-05   0.0   -4.513199105794354e-05
2.9692468548139855e-05   0.0   -4.513199105794354e-05
2.9692468548139855e-05   0.0   -4.513199105794354e-05
2.9692468548139855e-05   0.0   -4.513199105794354e-05
6.705738513659905e-05   -8.83133352278236e-06   1.1844069809152725e-05
6.705738513659905e-05   -8.83133352278236e-06   1.1844069809152725e-05
6.705738513659905e-05   -8.83133352278236e-06   1.1844069809152725e-05
6.705738513659905e-05   -8.83133352278236e-06   1.1844069809152725e-05
6.29832085231565e-05   0.0   -4.98778632882711e-05
6.29832085231565e-05   0.0   -4.98778632882711e-05
6.29832085231565e-05   0.0   -4.98778632882711e-05
6.29832085231565e-05   0.0   -4.98778632882711e-05
2.9749502752519506e-05   -7.511822180464854e-06   1.0018739637736133e-05
2.9749502752519506e-05   -7.511822180464854e-06   1.0018739637736133e-05
2.9749502752519506e-05   -7.511822180464854e-06   1.0018739637736133e-05
2.9749502752519506e-05   -7.511822180464854e-06   1.0018739637736133e-05
4.633783853564817e-05   -3.954893525272967e-06   -1.9762643860593427e-05
4.633783853564817e-05   -3.954893525272967e-06   -1.9762643860593427e-05
4.633783853564817e-05   -3.954893525272967e-06   -1.9762643860593427e-05
4.633783853564817e-05   -3.954893525272967e-06   -1.9762643860593427e-05
2.974950275251948e-05   0.0   -4.537076997999215e-05
2.974950275251948e-05   0.0   -4.537076997999215e-05
2.974950275251948e-05   0.0   -4.537076997999215e-05
2.974950275251948e-05   0.0   -4.537076997999215e-05
6.298320852315628e-05   -7.5118221804648265e-06   5.511646329457194e-06
6.298320852315628e-05   -7.5118221804648265e-06   5.511646329457194e-06
6.298320852315628e-05   -7.5118221804648265e-06   5.511646329457194e-06
6.298320852315628e-05   -7.5118221804648265e-06   5.511646329457194e-06
6.110609167844254e-05   0.0   -4.884091523118107e-05
6.110609167844254e-05   0.0   -4.884091523118107e-05
6.110609167844254e-05   0.0   -4.884091523118107e-05
6.110609167844254e-05   0.0   -4.884091523118107e-05
2.9625740450808623e-05   -6.863320614545917e-06   7.744329183603003e-06
2.9625740450808623e-05   -6.863320614545917e-06   7.744329183603003e-06
2.9625740450808623e-05   -6.863320614545917e-06   7.744329183603003e-06
2.9625740450808623e-05   -6.863320614545917e-06   7.744329183603003e-06
4.5427797215481e-05   -2.891787709324075e-06   -2.097535183398406e-05
4.5427797215481e-05   -2.891787709324075e-06   -2.097535183398406e-05
4.5427797215481e-05   -2.891787709324075e-06   -2.097535183398406e-05
4.5427797215481e-05   -2.891787709324075e-06   -2.097535183398406e-05
2.9625740450808623e-05   0.0   -4.472292286245351e-05
2.9625740450808623e-05   0.0   -4.472292286245351e-05
2.9625740450808623e-05   0.0   -4.472292286245351e-05
2.9625740450808623e-05   0.0   -4.472292286245351e-05
6.110609167844232e-05   -6.863320614545904e-06   3.626336814875424e-06
6.110609167844232e-05   -6.863320614545904e-06   3.626336814875424e-06
6.110609167844232e-05   -6.863320614545904e-06   3.626336814875424e-06
6.110609167844232e-05   -6.863320614545904e-06   3.626336814875424e-06
5.8309041196428525e-05   0.0   -4.6189588486464516e-05
5.8309041196428525e-05   0.0   -4.6189588486464516e-05
5.8309041196428525e-05   0.0   -4.6189588486464516e-05
5.8309041196428525e-05   0.0   -4.6189588486464516e-05
3.020300954799334e-05   -5.331708408779737e-06   3.8528226395287115e-06
3.020300954799334e-05   -5.331708408779737e-06   3.8528226395287115e-06
3.020300954799334e-05   -5.331708408779737e-06   3.8528226395287115e-06
3.020300954799334e-05   -5.331708408779737e-06   3.8528226395287115e-06
4.396739082361863e-05   -1.2222213533425661e-06   -2.1553505053109037e-05
4.396739082361863e-05   -1.2222213533425661e-06   -2.1553505053109037e-05
4.396739082361863e-05   -1.2222213533425661e-06   -2.1553505053109037e-05
4.396739082361863e-05   -1.2222213533425661e-06   -2.1553505053109037e-05
-6.555275043412703e-05   8.367793695234979e-06   -4.304596421235124e-05
-6.555275043412703e-05   8.367793695234979e-06   -4.304596421235124e-05
-6.555275043412703e-05   8.367793695234979e-06   -4.304596421235124e-05
-6.555275043412703e-05   8.367793695234979e-06   -4.304596421235124e-05