<?xml version="1.0"?> 
<VTKFile type="UnstructuredGrid"> 
   <UnstructuredGrid> 
      <Piece NumberOfPoints="6000"  NumberOfCells="1500">  
          <Points>  
             <DataArray type="Float64" NumberOfComponents="3" format="ascii">   
-500.0   0.0   0.0
-450.0   0.0   0.0
-500.0   30.0   0.0
-500.0   0.0   16.666666666666668
-450.0   0.0   0.0
-450.0   30.0   0.0
-500.0   30.0   0.0
-450.0   30.0   16.666666666666668
-500.0   0.0   16.666666666666668
-500.0   30.0   16.666666666666668
-450.0   30.0   16.666666666666668
-500.0   30.0   0.0
-500.0   0.0   16.666666666666668
-450.0   30.0   16.666666666666668
-450.0   0.0   16.666666666666668
-450.0   0.0   0.0
-500.0   0.0   16.666666666666668
-450.0   30.0   16.666666666666668
-450.0   0.0   0.0
-500.0   30.0   0.0
-500.0   0.0   16.666666666666668
-450.0   0.0   16.666666666666668
-500.0   30.0   16.666666666666668
-500.0   0.0   33.333333333333336
-450.0   0.0   16.666666666666668
-450.0   30.0   16.666666666666668
-500.0   30.0   16.666666666666668
-450.0   30.0   33.333333333333336
-500.0   0.0   33.333333333333336
-500.0   30.0   33.333333333333336
-450.0   30.0   33.333333333333336
-500.0   30.0   16.666666666666668
-500.0   0.0   33.333333333333336
-450.0   30.0   33.333333333333336
-450.0   0.0   33.333333333333336
-450.0   0.0   16.666666666666668
-500.0   0.0   33.333333333333336
-450.0   30.0   33.333333333333336
-450.0   0.0   16.666666666666668
-500.0   30.0   16.666666666666668
-500.0   0.0   33.333333333333336
-450.0   0.0   33.333333333333336
-500.0   30.0   33.333333333333336
-500.0   0.0   50.0
-450.0   0.0   33.333333333333336
-450.0   30.0   33.333333333333336
-500.0   30.0   33.333333333333336
-450.0   30.0   50.0
-500.0   0.0   50.0
-500.0   30.0   50.0
-450.0   30.0   50.0
-500.0   30.0   33.333333333333336
-500.0   0.0   50.0
-450.0   30.0   50.0
-450.0   0.0   50.0
-450.0   0.0   33.333333333333336
-500.0   0.0   50.0
-450.0   30.0   50.0
-450.0   0.0   33.333333333333336
-500.0   30.0   33.333333333333336
-500.0   30.0   0.0
-450.0   30.0   0.0
-500.0   60.0   0.0
-500.0   30.0   16.666666666666668
-450.0   30.0   0.0
-450.0   60.0   0.0
-500.0   60.0   0.0
-450.0   60.0   16.666666666666668
-500.0   30.0   16.666666666666668
-500.0   60.0   16.666666666666668
-450.0   60.0   16.666666666666668
-500.0   60.0   0.0
-500.0   30.0   16.666666666666668
-450.0   60.0   16.666666666666668
-450.0   30.0   16.666666666666668
-450.0   30.0   0.0
-500.0   30.0   16.666666666666668
-450.0   60.0   16.666666666666668
-450.0   30.0   0.0
-500.0   60.0   0.0
-500.0   30.0   16.666666666666668
-450.0   30.0   16.666666666666668
-500.0   60.0   16.666666666666668
-500.0   30.0   33.333333333333336
-450.0   30.0   16.666666666666668
-450.0   60.0   16.666666666666668
-500.0   60.0   16.666666666666668
-450.0   60.0   33.333333333333336
-500.0   30.0   33.333333333333336
-500.0   60.0   33.333333333333336
-450.0   60.0   33.333333333333336
-500.0   60.0   16.666666666666668
-500.0   30.0   33.333333333333336
-450.0   60.0   33.333333333333336
-450.0   30.0   33.333333333333336
-450.0   30.0   16.666666666666668
-500.0   30.0   33.333333333333336
-450.0   60.0   33.333333333333336
-450.0   30.0   16.666666666666668
-500.0   60.0   16.666666666666668
-500.0   30.0   33.333333333333336
-450.0   30.0   33.333333333333336
-500.0   60.0   33.333333333333336
-500.0   30.0   50.0
-450.0   30.0   33.333333333333336
-450.0   60.0   33.333333333333336
-500.0   60.0   33.333333333333336
-450.0   60.0   50.0
-500.0   30.0   50.0
-500.0   60.0   50.0
-450.0   60.0   50.0
-500.0   60.0   33.333333333333336
-500.0   30.0   50.0
-450.0   60.0   50.0
-450.0   30.0   50.0
-450.0   30.0   33.333333333333336
-500.0   30.0   50.0
-450.0   60.0   50.0
-450.0   30.0   33.333333333333336
-500.0   60.0   33.333333333333336
-500.0   60.0   0.0
-450.0   60.0   0.0
-500.0   90.0   0.0
-500.0   60.0   16.666666666666668
-450.0   60.0   0.0
-450.0   90.0   0.0
-500.0   90.0   0.0
-450.0   90.0   16.666666666666668
-500.0   60.0   16.666666666666668
-500.0   90.0   16.666666666666668
-450.0   90.0   16.666666666666668
-500.0   90.0   0.0
-500.0   60.0   16.666666666666668
-450.0   90.0   16.666666666666668
-450.0   60.0   16.666666666666668
-450.0   60.0   0.0
-500.0   60.0   16.666666666666668
-450.0   90.0   16.666666666666668
-450.0   60.0   0.0
-500.0   90.0   0.0
-500.0   60.0   16.666666666666668
-450.0   60.0   16.666666666666668
-500.0   90.0   16.666666666666668
-500.0   60.0   33.333333333333336
-450.0   60.0   16.666666666666668
-450.0   90.0   16.666666666666668
-500.0   90.0   16.666666666666668
-450.0   90.0   33.333333333333336
-500.0   60.0   33.333333333333336
-500.0   90.0   33.333333333333336
-450.0   90.0   33.333333333333336
-500.0   90.0   16.666666666666668
-500.0   60.0   33.333333333333336
-450.0   90.0   33.333333333333336
-450.0   60.0   33.333333333333336
-450.0   60.0   16.666666666666668
-500.0   60.0   33.333333333333336
-450.0   90.0   33.333333333333336
-450.0   60.0   16.666666666666668
-500.0   90.0   16.666666666666668
-500.0   60.0   33.333333333333336
-450.0   60.0   33.333333333333336
-500.0   90.0   33.333333333333336
-500.0   60.0   50.0
-450.0   60.0   33.333333333333336
-450.0   90.0   33.333333333333336
-500.0   90.0   33.333333333333336
-450.0   90.0   50.0
-500.0   60.0   50.0
-500.0   90.0   50.0
-450.0   90.0   50.0
-500.0   90.0   33.333333333333336
-500.0   60.0   50.0
-450.0   90.0   50.0
-450.0   60.0   50.0
-450.0   60.0   33.333333333333336
-500.0   60.0   50.0
-450.0   90.0   50.0
-450.0   60.0   33.333333333333336
-500.0   90.0   33.333333333333336
-500.0   90.0   0.0
-450.0   90.0   0.0
-500.0   120.0   0.0
-500.0   90.0   16.666666666666668
-450.0   90.0   0.0
-450.0   120.0   0.0
-500.0   120.0   0.0
-450.0   120.0   16.666666666666668
-500.0   90.0   16.666666666666668
-500.0   120.0   16.666666666666668
-450.0   120.0   16.666666666666668
-500.0   120.0   0.0
-500.0   90.0   16.666666666666668
-450.0   120.0   16.666666666666668
-450.0   90.0   16.666666666666668
-450.0   90.0   0.0
-500.0   90.0   16.666666666666668
-450.0   120.0   16.666666666666668
-450.0   90.0   0.0
-500.0   120.0   0.0
-500.0   90.0   16.666666666666668
-450.0   90.0   16.666666666666668
-500.0   120.0   16.666666666666668
-500.0   90.0   33.333333333333336
-450.0   90.0   16.666666666666668
-450.0   120.0   16.666666666666668
-500.0   120.0   16.666666666666668
-450.0   120.0   33.333333333333336
-500.0   90.0   33.333333333333336
-500.0   120.0   33.333333333333336
-450.0   120.0   33.333333333333336
-500.0   120.0   16.666666666666668
-500.0   90.0   33.333333333333336
-450.0   120.0   33.333333333333336
-450.0   90.0   33.333333333333336
-450.0   90.0   16.666666666666668
-500.0   90.0   33.333333333333336
-450.0   120.0   33.333333333333336
-450.0   90.0   16.666666666666668
-500.0   120.0   16.666666666666668
-500.0   90.0   33.333333333333336
-450.0   90.0   33.333333333333336
-500.0   120.0   33.333333333333336
-500.0   90.0   50.0
-450.0   90.0   33.333333333333336
-450.0   120.0   33.333333333333336
-500.0   120.0   33.333333333333336
-450.0   120.0   50.0
-500.0   90.0   50.0
-500.0   120.0   50.0
-450.0   120.0   50.0
-500.0   120.0   33.333333333333336
-500.0   90.0   50.0
-450.0   120.0   50.0
-450.0   90.0   50.0
-450.0   90.0   33.333333333333336
-500.0   90.0   50.0
-450.0   120.0   50.0
-450.0   90.0   33.333333333333336
-500.0   120.0   33.333333333333336
-500.0   120.0   0.0
-450.0   120.0   0.0
-500.0   150.0   0.0
-500.0   120.0   16.666666666666668
-450.0   120.0   0.0
-450.0   150.0   0.0
-500.0   150.0   0.0
-450.0   150.0   16.666666666666668
-500.0   120.0   16.666666666666668
-500.0   150.0   16.666666666666668
-450.0   150.0   16.666666666666668
-500.0   150.0   0.0
-500.0   120.0   16.666666666666668
-450.0   150.0   16.666666666666668
-450.0   120.0   16.666666666666668
-450.0   120.0   0.0
-500.0   120.0   16.666666666666668
-450.0   150.0   16.666666666666668
-450.0   120.0   0.0
-500.0   150.0   0.0
-500.0   120.0   16.666666666666668
-450.0   120.0   16.666666666666668
-500.0   150.0   16.666666666666668
-500.0   120.0   33.333333333333336
-450.0   120.0   16.666666666666668
-450.0   150.0   16.666666666666668
-500.0   150.0   16.666666666666668
-450.0   150.0   33.333333333333336
-500.0   120.0   33.333333333333336
-500.0   150.0   33.333333333333336
-450.0   150.0   33.333333333333336
-500.0   150.0   16.666666666666668
-500.0   120.0   33.333333333333336
-450.0   150.0   33.333333333333336
-450.0   120.0   33.333333333333336
-450.0   120.0   16.666666666666668
-500.0   120.0   33.333333333333336
-450.0   150.0   33.333333333333336
-450.0   120.0   16.666666666666668
-500.0   150.0   16.666666666666668
-500.0   120.0   33.333333333333336
-450.0   120.0   33.333333333333336
-500.0   150.0   33.333333333333336
-500.0   120.0   50.0
-450.0   120.0   33.333333333333336
-450.0   150.0   33.333333333333336
-500.0   150.0   33.333333333333336
-450.0   150.0   50.0
-500.0   120.0   50.0
-500.0   150.0   50.0
-450.0   150.0   50.0
-500.0   150.0   33.333333333333336
-500.0   120.0   50.0
-450.0   150.0   50.0
-450.0   120.0   50.0
-450.0   120.0   33.333333333333336
-500.0   120.0   50.0
-450.0   150.0   50.0
-450.0   120.0   33.333333333333336
-500.0   150.0   33.333333333333336
-450.0   0.0   0.0
-400.0   0.0   0.0
-450.0   30.0   0.0
-450.0   0.0   16.666666666666668
-400.0   0.0   0.0
-400.0   30.0   0.0
-450.0   30.0   0.0
-400.0   30.0   16.666666666666668
-450.0   0.0   16.666666666666668
-450.0   30.0   16.666666666666668
-400.0   30.0   16.666666666666668
-450.0   30.0   0.0
-450.0   0.0   16.666666666666668
-400.0   30.0   16.666666666666668
-400.0   0.0   16.666666666666668
-400.0   0.0   0.0
-450.0   0.0   16.666666666666668
-400.0   30.0   16.666666666666668
-400.0   0.0   0.0
-450.0   30.0   0.0
-450.0   0.0   16.666666666666668
-400.0   0.0   16.666666666666668
-450.0   30.0   16.666666666666668
[...]
          <PointData>  
             <DataArray type="Float64" NumberOfComponents="3" Name="Strains" format="ascii">   
-5.05631382922735e-05   0.0   -3.330651037324836e-05
-5.05631382922735e-05   0.0   -3.330651037324836e-05
-5.05631382922735e-05   0.0   -3.330651037324836e-05
-5.05631382922735e-05   0.0   -3.330651037324836e-05
-3.216225291142018e-05   5.58526009637759e-06   7.127879860003189e-07
-3.216225291142018e-05   5.58526009637759e-06   7.127879860003189e-07
-3.216225291142018e-05   5.58526009637759e-06   7.127879860003189e-07
-3.216225291142018e-05   5.58526009637759e-06   7.127879860003189e-07
-3.1517942177977465e-05   0.0   -3.145082094114694e-05
-3.1517942177977465e-05   0.0   -3.145082094114694e-05
-3.1517942177977465e-05   0.0   -3.145082094114694e-05
-3.1517942177977465e-05   0.0   -3.145082094114694e-05
-5.290652083237509e-05   6.710309663165215e-06   1.7062435161677343e-07
-5.290652083237509e-05   6.710309663165215e-06   1.7062435161677343e-07
-5.290652083237509e-05   6.710309663165215e-06   1.7062435161677343e-07
-5.290652083237509e-05   6.710309663165215e-06   1.7062435161677343e-07
-4.1040540235125406e-05   1.5464078600845138e-06   -1.6507668895284254e-05
-4.1040540235125406e-05   1.5464078600845138e-06   -1.6507668895284254e-05
-4.1040540235125406e-05   1.5464078600845138e-06   -1.6507668895284254e-05
-4.1040540235125406e-05   1.5464078600845138e-06   -1.6507668895284254e-05
-5.290652083237518e-05   0.0   -3.5477006739046075e-05
-5.290652083237518e-05   0.0   -3.5477006739046075e-05
-5.290652083237518e-05   0.0   -3.5477006739046075e-05
-5.290652083237518e-05   0.0   -3.5477006739046075e-05
-3.1517942177977465e-05   6.710309663165222e-06   4.196810149515905e-06
-3.1517942177977465e-05   6.710309663165222e-06   4.196810149515905e-06
-3.1517942177977465e-05   6.710309663165222e-06   4.196810149515905e-06
-3.1517942177977465e-05   6.710309663165222e-06   4.196810149515905e-06
-3.159791231177952e-05   0.0   -3.2218226675338787e-05
-3.159791231177952e-05   0.0   -3.2218226675338787e-05
-3.159791231177952e-05   0.0   -3.2218226675338787e-05
-3.159791231177952e-05   0.0   -3.2218226675338787e-05
-5.454816225219005e-05   7.191186078055673e-06   1.7174782451788212e-06
-5.454816225219005e-05   7.191186078055673e-06   1.7174782451788212e-06
-5.454816225219005e-05   7.191186078055673e-06   1.7174782451788212e-06
-5.454816225219005e-05   7.191186078055673e-06   1.7174782451788212e-06
-4.2252216572077276e-05   2.7156500530894044e-06   -1.609044294002935e-05
-4.2252216572077276e-05   2.7156500530894044e-06   -1.609044294002935e-05
-4.2252216572077276e-05   2.7156500530894044e-06   -1.609044294002935e-05
-4.2252216572077276e-05   2.7156500530894044e-06   -1.609044294002935e-05
-5.4548162252190145e-05   0.0   -3.6532938322172195e-05
-5.4548162252190145e-05   0.0   -3.6532938322172195e-05
-5.4548162252190145e-05   0.0   -3.6532938322172195e-05
-5.4548162252190145e-05   0.0   -3.6532938322172195e-05
-3.159791231177952e-05   7.191186078055687e-06   6.032189892012236e-06
-3.159791231177952e-05   7.191186078055687e-06   6.032189892012236e-06
-3.159791231177952e-05   7.191186078055687e-06   6.032189892012236e-06
-3.159791231177952e-05   7.191186078055687e-06   6.032189892012236e-06
-3.157125288341875e-05   0.0   -3.241682530889706e-05
-3.157125288341875e-05   0.0   -3.241682530889706e-05
-3.157125288341875e-05   0.0   -3.241682530889706e-05
-3.157125288341875e-05   0.0   -3.241682530889706e-05
-5.8093558326682767e-05   8.198794460607264e-06   6.867740420178769e-06
-5.8093558326682767e-05   8.198794460607264e-06   6.867740420178769e-06
-5.8093558326682767e-05   8.198794460607264e-06   6.867740420178769e-06
-5.8093558326682767e-05   8.198794460607264e-06   6.867740420178769e-06
-4.305970756780437e-05   3.4300941777292775e-06   -1.5327457341558417e-05
-4.305970756780437e-05   3.4300941777292775e-06   -1.5327457341558417e-05
-4.305970756780437e-05   3.4300941777292775e-06   -1.5327457341558417e-05
-4.305970756780437e-05   3.4300941777292775e-06   -1.5327457341558417e-05
-3.216225291142024e-05   0.0   -2.99553543154218e-05
-3.216225291142024e-05   0.0   -2.99553543154218e-05
-3.216225291142024e-05   0.0   -2.99553543154218e-05
-3.216225291142024e-05   0.0   -2.99553543154218e-05
-1.465717464669213e-05   2.045334662580205e-06   4.4697692333981644e-07
-1.465717464669213e-05   2.045334662580205e-06   4.4697692333981644e-07
-1.465717464669213e-05   2.045334662580205e-06   4.4697692333981644e-07
-1.465717464669213e-05   2.045334662580205e-06   4.4697692333981644e-07
-1.4088373301639542e-05   0.0   -2.9700471844035178e-05
-1.4088373301639542e-05   0.0   -2.9700471844035178e-05
-1.4088373301639542e-05   0.0   -2.9700471844035178e-05
-1.4088373301639542e-05   0.0   -2.9700471844035178e-05
-3.1517942177977465e-05   2.9172484951862736e-06   -2.4015394805837335e-06
-3.1517942177977465e-05   2.9172484951862736e-06   -2.4015394805837335e-06
-3.1517942177977465e-05   2.9172484951862736e-06   -2.4015394805837335e-06
-3.1517942177977465e-05   2.9172484951862736e-06   -2.4015394805837335e-06
-2.312531310652985e-05   2.1240205948885218e-07   -1.4766346738244539e-05
-2.312531310652985e-05   2.1240205948885218e-07   -1.4766346738244539e-05
-2.312531310652985e-05   2.1240205948885218e-07   -1.4766346738244539e-05
-2.312531310652985e-05   2.1240205948885218e-07   -1.4766346738244539e-05
-3.151794217797744e-05   0.0   -3.1450820941146915e-05
-3.151794217797744e-05   0.0   -3.1450820941146915e-05
-3.151794217797744e-05   0.0   -3.1450820941146915e-05
-3.151794217797744e-05   0.0   -3.1450820941146915e-05
-1.4088373301639542e-05   2.9172484951862736e-06   -6.511903834719686e-07
-1.4088373301639542e-05   2.9172484951862736e-06   -6.511903834719686e-07
-1.4088373301639542e-05   2.9172484951862736e-06   -6.511903834719686e-07
-1.4088373301639542e-05   2.9172484951862736e-06   -6.511903834719686e-07
-1.376527229999003e-05   0.0   -3.0071449042219512e-05
-1.376527229999003e-05   0.0   -3.0071449042219512e-05
-1.376527229999003e-05   0.0   -3.0071449042219512e-05
-1.376527229999003e-05   0.0   -3.0071449042219512e-05
-3.159791231177952e-05   3.5779627218654534e-06   -2.4971599890229656e-06
-3.159791231177952e-05   3.5779627218654534e-06   -2.4971599890229656e-06
-3.159791231177952e-05   3.5779627218654534e-06   -2.4971599890229656e-06
-3.159791231177952e-05   3.5779627218654534e-06   -2.4971599890229656e-06
-2.26416072389837e-05   1.14947658243952e-06   -1.5967243426693646e-05
-2.26416072389837e-05   1.14947658243952e-06   -1.5967243426693646e-05
-2.26416072389837e-05   1.14947658243952e-06   -1.5967243426693646e-05
-2.26416072389837e-05   1.14947658243952e-06   -1.5967243426693646e-05
-3.159791231177952e-05   0.0   -3.2218226675338787e-05
-3.159791231177952e-05   0.0   -3.2218226675338787e-05
-3.159791231177952e-05   0.0   -3.2218226675338787e-05
-3.159791231177952e-05   0.0   -3.2218226675338787e-05
-1.376527229999003e-05   3.5779627218654534e-06   -3.503823559036915e-07
-1.376527229999003e-05   3.5779627218654534e-06   -3.503823559036915e-07
-1.376527229999003e-05   3.5779627218654534e-06   -3.503823559036915e-07
-1.376527229999003e-05   3.5779627218654534e-06   -3.503823559036915e-07
-1.346959065033351e-05   0.0   -2.991753005706613e-05
-1.346959065033351e-05   0.0   -2.991753005706613e-05
-1.346959065033351e-05   0.0   -2.991753005706613e-05
-1.346959065033351e-05   0.0   -2.991753005706613e-05
-3.1571252883418666e-05   4.165492086384829e-06   -2.2473882537549862e-06
-3.1571252883418666e-05   4.165492086384829e-06   -2.2473882537549862e-06
-3.1571252883418666e-05   4.165492086384829e-06   -2.2473882537549862e-06
-3.1571252883418666e-05   4.165492086384829e-06   -2.2473882537549862e-06
-2.253375148105651e-05   1.917247181893862e-06   -1.5960943648330777e-05
-2.253375148105651e-05   1.917247181893862e-06   -1.5960943648330777e-05
-2.253375148105651e-05   1.917247181893862e-06   -1.5960943648330777e-05
-2.253375148105651e-05   1.917247181893862e-06   -1.5960943648330777e-05
-1.4657174646692155e-05   0.0   -2.8728153517873676e-05
-1.4657174646692155e-05   0.0   -2.8728153517873676e-05
-1.4657174646692155e-05   0.0   -2.8728153517873676e-05
-1.4657174646692155e-05   0.0   -2.8728153517873676e-05
1.874215940955347e-06   -2.6438502896969503e-07   -1.3344668891762944e-06
1.874215940955347e-06   -2.6438502896969503e-07   -1.3344668891762944e-06
1.874215940955347e-06   -2.6438502896969503e-07   -1.3344668891762944e-06
1.874215940955347e-06   -2.6438502896969503e-07   -1.3344668891762944e-06
2.241413984858991e-06   0.0   -2.9389541628509027e-05
2.241413984858991e-06   0.0   -2.9389541628509027e-05
2.241413984858991e-06   0.0   -2.9389541628509027e-05
2.241413984858991e-06   0.0   -2.9389541628509027e-05
-1.4088373301639542e-05   5.182170258767458e-07   -2.484159699870951e-06
-1.4088373301639542e-05   5.182170258767458e-07   -2.484159699870951e-06
-1.4088373301639542e-05   5.182170258767458e-07   -2.484159699870951e-06
-1.4088373301639542e-05   5.182170258767458e-07   -2.484159699870951e-06
-6.2078803309165675e-06   -5.511567588628775e-07   -1.4976690380232071e-05
-6.2078803309165675e-06   -5.511567588628775e-07   -1.4976690380232071e-05
-6.2078803309165675e-06   -5.511567588628775e-07   -1.4976690380232071e-05
-6.2078803309165675e-06   -5.511567588628775e-07   -1.4976690380232071e-05
-1.4088373301639542e-05   0.0   -2.9700471844035178e-05
-1.4088373301639542e-05   0.0   -2.9700471844035178e-05
-1.4088373301639542e-05   0.0   -2.9700471844035178e-05
-1.4088373301639542e-05   0.0   -2.9700471844035178e-05
2.241413984858995e-06   5.182170258767458e-07   -2.1732294843448924e-06
2.241413984858995e-06   5.182170258767458e-07   -2.1732294843448924e-06
2.241413984858995e-06   5.182170258767458e-07   -2.1732294843448924e-06
2.241413984858995e-06   5.182170258767458e-07   -2.1732294843448924e-06
2.532408428955564e-06   0.0   -2.934681076410218e-05
2.532408428955564e-06   0.0   -2.934681076410218e-05
2.532408428955564e-06   0.0   -2.934681076410218e-05
2.532408428955564e-06   0.0   -2.934681076410218e-05
-1.3765272299990007e-05   1.2077304635287997e-06   -2.9086478273101813e-06
-1.3765272299990007e-05   1.2077304635287997e-06   -2.9086478273101813e-06
-1.3765272299990007e-05   1.2077304635287997e-06   -2.9086478273101813e-06
-1.3765272299990007e-05   1.2077304635287997e-06   -2.9086478273101813e-06
-5.777982436341987e-06   2.9471756661078984e-07   -1.5672989861906104e-05
-5.777982436341987e-06   2.9471756661078984e-07   -1.5672989861906104e-05
-5.777982436341987e-06   2.9471756661078984e-07   -1.5672989861906104e-05
-5.777982436341987e-06   2.9471756661078984e-07   -1.5672989861906104e-05
-1.376527229999003e-05   0.0   -3.0071449042219512e-05
-1.376527229999003e-05   0.0   -3.0071449042219512e-05
-1.376527229999003e-05   0.0   -3.0071449042219512e-05
-1.376527229999003e-05   0.0   -3.0071449042219512e-05
2.532408428955568e-06   1.2077304635287997e-06   -2.184009549192903e-06
2.532408428955568e-06   1.2077304635287997e-06   -2.184009549192903e-06
2.532408428955568e-06   1.2077304635287997e-06   -2.184009549192903e-06
2.532408428955568e-06   1.2077304635287997e-06   -2.184009549192903e-06
2.920983109736704e-06   0.0   -2.8714030474044207e-05
2.920983109736704e-06   0.0   -2.8714030474044207e-05
2.920983109736704e-06   0.0   -2.8714030474044207e-05
2.920983109736704e-06   0.0   -2.8714030474044207e-05
-1.3469590650333498e-05   2.0058326383698243e-06   -2.599907123615766e-06
-1.3469590650333498e-05   2.0058326383698243e-06   -2.599907123615766e-06
-1.3469590650333498e-05   2.0058326383698243e-06   -2.599907123615766e-06
-1.3469590650333498e-05   2.0058326383698243e-06   -2.599907123615766e-06
-5.422144595126651e-06   1.131182140146044e-06   -1.5487526916692898e-05
-5.422144595126651e-06   1.131182140146044e-06   -1.5487526916692898e-05
-5.422144595126651e-06   1.131182140146044e-06   -1.5487526916692898e-05
-5.422144595126651e-06   1.131182140146044e-06   -1.5487526916692898e-05
1.8742159409553502e-06   0.0   -2.8886784535255494e-05
1.8742159409553502e-06   0.0   -2.8886784535255494e-05
1.8742159409553502e-06   0.0   -2.8886784535255494e-05
1.8742159409553502e-06   0.0   -2.8886784535255494e-05
1.9826375837326914e-05   -2.3254783560620323e-06   -3.6180505494008924e-07
1.9826375837326914e-05   -2.3254783560620323e-06   -3.6180505494008924e-07
1.9826375837326914e-05   -2.3254783560620323e-06   -3.6180505494008924e-07
1.9826375837326914e-05   -2.3254783560620323e-06   -3.6180505494008924e-07
1.987252772158845e-05   0.0   -3.0439895491496342e-05
1.987252772158845e-05   0.0   -3.0439895491496342e-05
1.987252772158845e-05   0.0   -3.0439895491496342e-05
1.987252772158845e-05   0.0   -3.0439895491496342e-05
2.2414139848589987e-06   -1.7505897716453545e-06   -4.352067293381498e-09
2.2414139848589987e-06   -1.7505897716453545e-06   -4.352067293381498e-09
2.2414139848589987e-06   -1.7505897716453545e-06   -4.352067293381498e-09
2.2414139848589987e-06   -1.7505897716453545e-06   -4.352067293381498e-09
1.08733718312719e-05   -1.2942591302007072e-06   -1.4664746862848324e-05
1.08733718312719e-05   -1.2942591302007072e-06   -1.4664746862848324e-05
1.08733718312719e-05   -1.2942591302007072e-06   -1.4664746862848324e-05
1.08733718312719e-05   -1.2942591302007072e-06   -1.4664746862848324e-05
2.2414139848589987e-06   0.0   -2.938954162850913e-05
2.2414139848589987e-06   0.0   -2.938954162850913e-05
2.2414139848589987e-06   0.0   -2.938954162850913e-05
2.2414139848589987e-06   0.0   -2.938954162850913e-05
1.987252772158845e-05   -1.7505897716453545e-06   -1.0547059302805944e-06
1.987252772158845e-05   -1.7505897716453545e-06   -1.0547059302805944e-06
1.987252772158845e-05   -1.7505897716453545e-06   -1.0547059302805944e-06
1.987252772158845e-05   -1.7505897716453545e-06   -1.0547059302805944e-06
1.9796807612470844e-05   0.0   -3.0005303346383936e-05
1.9796807612470844e-05   0.0   -3.0005303346383936e-05
1.9796807612470844e-05   0.0   -3.0005303346383936e-05
1.9796807612470844e-05   0.0   -3.0005303346383936e-05
2.532408428955568e-06   -1.0974876371361758e-06   -5.728121249101096e-07
2.532408428955568e-06   -1.0974876371361758e-06   -5.728121249101096e-07
2.532408428955568e-06   -1.0974876371361758e-06   -5.728121249101096e-07
2.532408428955568e-06   -1.0974876371361758e-06   -5.728121249101096e-07
1.1019110798664921e-05   -5.131347648956744e-07   -1.5067927797769986e-05
1.1019110798664921e-05   -5.131347648956744e-07   -1.5067927797769986e-05
1.1019110798664921e-05   -5.131347648956744e-07   -1.5067927797769986e-05
1.1019110798664921e-05   -5.131347648956744e-07   -1.5067927797769986e-05
2.532408428955566e-06   0.0   -2.9346810764102207e-05
2.532408428955566e-06   0.0   -2.9346810764102207e-05
2.532408428955566e-06   0.0   -2.9346810764102207e-05
2.532408428955566e-06   0.0   -2.9346810764102207e-05
1.9796807612470844e-05   -1.0974876371361758e-06   -1.231304707191813e-06
1.9796807612470844e-05   -1.0974876371361758e-06   -1.231304707191813e-06
1.9796807612470844e-05   -1.0974876371361758e-06   -1.231304707191813e-06
1.9796807612470844e-05   -1.0974876371361758e-06   -1.231304707191813e-06
2.0189235753831793e-05   0.0   -2.8846292355595714e-05
2.0189235753831793e-05   0.0   -2.8846292355595714e-05
2.0189235753831793e-05   0.0   -2.8846292355595714e-05
2.0189235753831793e-05   0.0   -2.8846292355595714e-05
2.920983109736709e-06   -2.2043646925241803e-07   6.639059944754278e-08
2.920983109736709e-06   -2.2043646925241803e-07   6.639059944754278e-08
2.920983109736709e-06   -2.2043646925241803e-07   6.639059944754278e-08
2.920983109736709e-06   -2.2043646925241803e-07   6.639059944754278e-08
1.1360822091393672e-05   4.170986737554352e-07   -1.438252878911876e-05
1.1360822091393672e-05   4.170986737554352e-07   -1.438252878911876e-05
1.1360822091393672e-05   4.170986737554352e-07   -1.438252878911876e-05
1.1360822091393672e-05   4.170986737554352e-07   -1.438252878911876e-05
1.9826375837326914e-05   0.0   -3.028207154889271e-05
1.9826375837326914e-05   0.0   -3.028207154889271e-05
1.9826375837326914e-05   0.0   -3.028207154889271e-05
1.9826375837326914e-05   0.0   -3.028207154889271e-05
4.4818492616070525e-05   -5.902407897992196e-06   7.830011676884907e-06
4.4818492616070525e-05   -5.902407897992196e-06   7.830011676884907e-06
4.4818492616070525e-05   -5.902407897992196e-06   7.830011676884907e-06
4.4818492616070525e-05   -5.902407897992196e-06   7.830011676884907e-06
4.2105952049362114e-05   0.0   -3.3449648038125844e-05
4.2105952049362114e-05   0.0   -3.3449648038125844e-05
4.2105952049362114e-05   0.0   -3.3449648038125844e-05
4.2105952049362114e-05   0.0   -3.3449648038125844e-05
1.987252772158845e-05   -5.016254244382499e-06   6.615811721459759e-06
1.987252772158845e-05   -5.016254244382499e-06   6.615811721459759e-06
1.987252772158845e-05   -5.016254244382499e-06   6.615811721459759e-06
1.987252772158845e-05   -5.016254244382499e-06   6.615811721459759e-06
3.096616394334451e-05   -2.639647074360944e-06   -1.3299546283479935e-05
3.096616394334451e-05   -2.639647074360944e-06   -1.3299546283479935e-05
3.096616394334451e-05   -2.639647074360944e-06   -1.3299546283479935e-05
3.096616394334451e-05   -2.639647074360944e-06   -1.3299546283479935e-05
1.9872527721588432e-05   0.0   -3.0439895491496315e-05
1.9872527721588432e-05   0.0   -3.0439895491496315e-05
1.9872527721588432e-05   0.0   -3.0439895491496315e-05
1.9872527721588432e-05   0.0   -3.0439895491496315e-05
4.2105952049361965e-05   -5.0162542443824855e-06   3.60605917483023e-06
4.2105952049361965e-05   -5.0162542443824855e-06   3.60605917483023e-06
4.2105952049361965e-05   -5.0162542443824855e-06   3.60605917483023e-06
4.2105952049361965e-05   -5.0162542443824855e-06   3.60605917483023e-06
4.0859332974514006e-05   0.0   -3.2754314494432224e-05
4.0859332974514006e-05   0.0   -3.2754314494432224e-05
4.0859332974514006e-05   0.0   -3.2754314494432224e-05
4.0859332974514006e-05   0.0   -3.2754314494432224e-05
1.9796807612470844e-05   -4.581685246747145e-06   5.098905590354663e-06
1.9796807612470844e-05   -4.581685246747145e-06   5.098905590354663e-06
1.9796807612470844e-05   -4.581685246747145e-06   5.098905590354663e-06
1.9796807612470844e-05   -4.581685246747145e-06   5.098905590354663e-06
3.036593034805121e-05   -1.928682502446573e-06   -1.4108100615526294e-05
3.036593034805121e-05   -1.928682502446573e-06   -1.4108100615526294e-05
3.036593034805121e-05   -1.928682502446573e-06   -1.4108100615526294e-05
3.036593034805121e-05   -1.928682502446573e-06   -1.4108100615526294e-05
1.9796807612470844e-05   0.0   -3.0005303346383936e-05
1.9796807612470844e-05   0.0   -3.0005303346383936e-05
1.9796807612470844e-05   0.0   -3.0005303346383936e-05
1.9796807612470844e-05   0.0   -3.0005303346383936e-05
4.085933297451386e-05   -4.581685246747138e-06   2.349894442306354e-06
4.085933297451386e-05   -4.581685246747138e-06   2.349894442306354e-06
4.085933297451386e-05   -4.581685246747138e-06   2.349894442306354e-06
4.085933297451386e-05   -4.581685246747138e-06   2.349894442306354e-06
3.899690401126409e-05   0.0   -3.097883096027912e-05
3.899690401126409e-05   0.0   -3.097883096027912e-05
3.899690401126409e-05   0.0   -3.097883096027912e-05
3.899690401126409e-05   0.0   -3.097883096027912e-05
2.0189235753831793e-05   -3.55423100780578e-06   2.499821406791554e-06
2.0189235753831793e-05   -3.55423100780578e-06   2.499821406791554e-06
2.0189235753831793e-05   -3.55423100780578e-06   2.499821406791554e-06
2.0189235753831793e-05   -3.55423100780578e-06   2.499821406791554e-06
2.93968558118675e-05   -8.112730115793669e-07   -1.4491986821003785e-05
2.93968558118675e-05   -8.112730115793669e-07   -1.4491986821003785e-05
2.93968558118675e-05   -8.112730115793669e-07   -1.4491986821003785e-05
2.93968558118675e-05   -8.112730115793669e-07   -1.4491986821003785e-05
-4.378051475921619e-05   5.585260096377583e-06   -2.8806697670618917e-05
-4.378051475921619e-05   5.585260096377583e-06   -2.8806697670618917e-05