<?xml version="1.0"?> 
<VTKFile type="UnstructuredGrid"> 
   <UnstructuredGrid> 
      <Piece NumberOfPoints="6000"  NumberOfCells="1500">  
          <Points>  
             <DataArray type="Float64" NumberOfComponents="3" format="ascii">   
-500.0   0.0   0.0
-450.0   0.0   0.0
-500.0   30.0   0.0
-500.0   0.0   16.666666666666668
-450.0   0.0   0.0
-450.0   30.0   0.0
-500.0   30.0   0.0
-450.0   30.0   16.666666666666668
-500.0   0.0   16.666666666666668
-500.0   30.0   16.666666666666668
-450.0   30.0   16.666666666666668
-500.0   30.0   0.0
-500.0   0.0   16.666666666666668
-450.0   30.0   16.666666666666668
-450.0   0.0   16.666666666666668
-450.0   0.0   0.0
-500.0   0.0   16.666666666666668
-450.0   30.0   16.666666666666668
-450.0   0.0   0.0
-500.0   30.0   0.0
-500.0   0.0   16.666666666666668
-450.0   0.0   16.666666666666668
-500.0   30.0   16.666666666666668
-500.0   0.0   33.333333333333336
-450.0   0.0   16.666666666666668
-450.0   30.0   16.666666666666668
-500.0   30.0   16.666666666666668
-450.0   30.0   33.333333333333336
-500.0   0.0   33.333333333333336
-500.0   30.0   33.333333333333336
-450.0   30.0   33.333333333333336
-500.0   30.0   16.666666666666668
-500.0   0.0   33.333333333333336
-450.0   30.0   33.333333333333336
-450.0   0.0   33.333333333333336
-450.0   0.0   16.666666666666668
-500.0   0.0   33.333333333333336
-450.0   30.0   33.333333333333336
-450.0   0.0   16.666666666666668
-500.0   30.0   16.666666666666668
-500.0   0.0   33.333333333333336
-450.0   0.0   33.333333333333336
-500.0   30.0   33.333333333333336
-500.0   0.0   50.0
-450.0   0.0   33.333333333333336
-450.0   30.0   33.333333333333336
-500.0   30.0   33.333333333333336
-450.0   30.0   50.0
-500.0   0.0   50.0
-500.0   30.0   50.0
-450.0   30.0   50.0
-500.0   30.0   33.333333333333336
-500.0   0.0   50.0
-450.0   30.0   50.0
-450.0   0.0   50.0
-450.0   0.0   33.333333333333336
-500.0   0.0   50.0
-450.0   30.0   50.0
-450.0   0.0   33.333333333333336
-500.0   30.0   33.333333333333336
-500.0   30.0   0.0
-450.0   30.0   0.0
-500.0   60.0   0.0
-500.0   30.0   16.666666666666668
-450.0   30.0   0.0
-450.0   60.0   0.0
-500.0   60.0   0.0
-450.0   60.0   16.666666666666668
-500.0   30.0   16.666666666666668
-500.0   60.0   16.666666666666668
-450.0   60.0   16.666666666666668
-500.0   60.0   0.0
-500.0   30.0   16.666666666666668
-450.0   60.0   16.666666666666668
-450.0   30.0   16.666666666666668
-450.0   30.0   0.0
-500.0   30.0   16.666666666666668
-450.0   60.0   16.666666666666668
-450.0   30.0   0.0
-500.0   60.0   0.0
-500.0   30.0   16.666666666666668
-450.0   30.0   16.666666666666668
-500.0   60.0   16.666666666666668
-500.0   30.0   33.333333333333336
-450.0   30.0   16.666666666666668
-450.0   60.0   16.666666666666668
-500.0   60.0   16.666666666666668
-450.0   60.0   33.333333333333336
-500.0   30.0   33.333333333333336
-500.0   60.0   33.333333333333336
-450.0   60.0   33.333333333333336
-500.0   60.0   16.666666666666668
-500.0   30.0   33.333333333333336
-450.0   60.0   33.333333333333336
-450.0   30.0   33.333333333333336
-450.0   30.0   16.666666666666668
-500.0   30.0   33.333333333333336
-450.0   60.0   33.333333333333336
-450.0   30.0   16.666666666666668
-500.0   60.0   16.666666666666668
-500.0   30.0   33.333333333333336
-450.0   30.0   33.333333333333336
-500.0   60.0   33.333333333333336
-500.0   30.0   50.0
-450.0   30.0   33.333333333333336
-450.0   60.0   33.333333333333336
-500.0   60.0   33.333333333333336
-450.0   60.0   50.0
-500.0   30.0   50.0
-500.0   60.0   50.0
-450.0   60.0   50.0
-500.0   60.0   33.333333333333336
-500.0   30.0   50.0
-450.0   60.0   50.0
-450.0   30.0   50.0
-450.0   30.0   33.333333333333336
-500.0   30.0   50.0
-450.0   60.0   50.0
-450.0   30.0   33.333333333333336
-500.0   60.0   33.333333333333336
-500.0   60.0   0.0
-450.0   60.0   0.0
-500.0   90.0   0.0
-500.0   60.0   16.666666666666668
-450.0   60.0   0.0
-450.0   90.0   0.0
-500.0   90.0   0.0
-450.0   90.0   16.666666666666668
-500.0   60.0   16.666666666666668
-500.0   90.0   16.666666666666668
-450.0   90.0   16.666666666666668
-500.0   90.0   0.0
-500.0   60.0   16.666666666666668
-450.0   90.0   16.666666666666668
-450.0   60.0   16.666666666666668
-450.0   60.0   0.0
-500.0   60.0   16.666666666666668
-450.0   90.0   16.666666666666668
-450.0   60.0   0.0
-500.0   90.0   0.0
-500.0   60.0   16.666666666666668
-450.0   60.0   16.666666666666668
-500.0   90.0   16.666666666666668
-500.0   60.0   33.333333333333336
-450.0   60.0   16.666666666666668
-450.0   90.0   16.666666666666668
-500.0   90.0   16.666666666666668
-450.0   90.0   33.333333333333336
-500.0   60.0   33.333333333333336
-500.0   90.0   33.333333333333336
-450.0   90.0   33.333333333333336
-500.0   90.0   16.666666666666668
-500.0   60.0   33.333333333333336
-450.0   90.0   33.333333333333336
-450.0   60.0   33.333333333333336
-450.0   60.0   16.666666666666668
-500.0   60.0   33.333333333333336
-450.0   90.0   33.333333333333336
-450.0   60.0   16.666666666666668
-500.0   90.0   16.666666666666668
-500.0   60.0   33.333333333333336
-450.0   60.0   33.333333333333336
-500.0   90.0   33.333333333333336
-500.0   60.0   50.0
-450.0   60.0   33.333333333333336
-450.0   90.0   33.333333333333336
-500.0   90.0   33.333333333333336
-450.0   90.0   50.0
-500.0   60.0   50.0
-500.0   90.0   50.0
-450.0   90.0   50.0
-500.0   90.0   33.333333333333336
-500.0   60.0   50.0
-450.0   90.0   50.0
-450.0   60.0   50.0
-450.0   60.0   33.333333333333336
-500.0   60.0   50.0
-450.0   90.0   50.0
-450.0   60.0   33.333333333333336
-500.0   90.0   33.333333333333336
-500.0   90.0   0.0
-450.0   90.0   0.0
-500.0   120.0   0.0
-500.0   90.0   16.666666666666668
-450.0   90.0   0.0
-450.0   120.0   0.0
-500.0   120.0   0.0
-450.0   120.0   16.666666666666668
-500.0   90.0   16.666666666666668
-500.0   120.0   16.666666666666668
-450.0   120.0   16.666666666666668
-500.0   120.0   0.0
-500.0   90.0   16.666666666666668
-450.0   120.0   16.666666666666668
-450.0   90.0   16.666666666666668
-450.0   90.0   0.0
-500.0   90.0   16.666666666666668
-450.0   120.0   16.666666666666668
-450.0   90.0   0.0
-500.0   120.0   0.0
-500.0   90.0   16.666666666666668
-450.0   90.0   16.666666666666668
-500.0   120.0   16.666666666666668
-500.0   90.0   33.333333333333336
-450.0   90.0   16.666666666666668
-450.0   120.0   16.666666666666668
-500.0   120.0   16.666666666666668
-450.0   120.0   33.333333333333336
-500.0   90.0   33.333333333333336
-500.0   120.0   33.333333333333336
-450.0   120.0   33.333333333333336
-500.0   120.0   16.666666666666668
-500.0   90.0   33.333333333333336
-450.0   120.0   33.333333333333336
-450.0   90.0   33.333333333333336
-450.0   90.0   16.666666666666668
-500.0   90.0   33.333333333333336
-450.0   120.0   33.333333333333336
-450.0   90.0   16.666666666666668
-500.0   120.0   16.666666666666668
-500.0   90.0   33.333333333333336
-450.0   90.0   33.333333333333336
-500.0   120.0   33.333333333333336
-500.0   90.0   50.0
-450.0   90.0   33.333333333333336
-450.0   120.0   33.333333333333336
-500.0   120.0   33.333333333333336
-450.0   120.0   50.0
-500.0   90.0   50.0
-500.0   120.0   50.0
-450.0   120.0   50.0
-500.0   120.0   33.333333333333336
-500.0   90.0   50.0
-450.0   120.0   50.0
-450.0   90.0   50.0
-450.0   90.0   33.333333333333336
-500.0   90.0   50.0
-450.0   120.0   50.0
-450.0   90.0   33.333333333333336
-500.0   120.0   33.333333333333336
-500.0   120.0   0.0
-450.0   120.0   0.0
-500.0   150.0   0.0
-500.0   120.0   16.666666666666668
-450.0   120.0   0.0
-450.0   150.0   0.0
-500.0   150.0   0.0
-450.0   150.0   16.666666666666668
-500.0   120.0   16.666666666666668
-500.0   150.0   16.666666666666668
-450.0   150.0   16.666666666666668
-500.0   150.0   0.0
-500.0   120.0   16.666666666666668
-450.0   150.0   16.666666666666668
-450.0   120.0   16.666666666666668
-450.0   120.0   0.0
-500.0   120.0   16.666666666666668
-450.0   150.0   16.666666666666668
-450.0   120.0   0.0
-500.0   150.0   0.0
-500.0   120.0   16.666666666666668
-450.0   120.0   16.666666666666668
-500.0   150.0   16.666666666666668
-500.0   120.0   33.333333333333336
-450.0   120.0   16.666666666666668
-450.0   150.0   16.666666666666668
-500.0   150.0   16.666666666666668
-450.0   150.0   33.333333333333336
-500.0   120.0   33.333333333333336
-500.0   150.0   33.333333333333336
-450.0   150.0   33.333333333333336
-500.0   150.0   16.666666666666668
-500.0   120.0   33.333333333333336
-450.0   150.0   33.333333333333336
-450.0   120.0   33.333333333333336
-450.0   120.0   16.666666666666668
-500.0   120.0   33.333333333333336
-450.0   150.0   33.333333333333336
-450.0   120.0   16.666666666666668
-500.0   150.0   16.666666666666668
-500.0   120.0   33.333333333333336
-450.0   120.0   33.333333333333336
-500.0   150.0   33.333333333333336
-500.0   120.0   50.0
-450.0   120.0   33.333333333333336
-450.0   150.0   33.333333333333336
-500.0   150.0   33.333333333333336
-450.0   150.0   50.0
-500.0   120.0   50.0
-500.0   150.0   50.0
-450.0   150.0   50.0
-500.0   150.0   33.333333333333336
-500.0   120.0   50.0
-450.0   150.0   50.0
-450.0   120.0   50.0
-450.0   120.0   33.333333333333336
-500.0   120.0   50.0
-450.0   150.0   50.0
-450.0   120.0   33.333333333333336
-500.0   150.0   33.333333333333336
-450.0   0.0   0.0
-400.0   0.0   0.0
-450.0   30.0   0.0
-450.0   0.0   16.666666666666668
-400.0   0.0   0.0
-400.0   30.0   0.0
-450.0   30.0   0.0
-400.0   30.0   16.666666666666668
-450.0   0.0   16.666666666666668
-450.0   30.0   16.666666666666668
-400.0   30.0   16.666666666666668
-450.0   30.0   0.0
-450.0   0.0   16.666666666666668
-400.0   30.0   16.666666666666668
-400.0   0.0   16.666666666666668
-400.0   0.0   0.0
-450.0   0.0   16.666666666666668
-400.0   30.0   16.666666666666668
-400.0   0.0   0.0
-450.0   30.0   0.0
-450.0   0.0   16.666666666666668
-400.0   0.0   16.666666666666668
-450.0   30.0   16.666666666666668
[...]
          <PointData>  
             <DataArray type="Float64" NumberOfComponents="3" Name="Strains" format="ascii">   
-2.5528758638571665e-05   0.0   -1.6945770546445004e-05
-2.5528758638571665e-05   0.0   -1.6945770546445004e-05
-2.5528758638571665e-05   0.0   -1.6945770546445004e-05
-2.5528758638571665e-05   0.0   -1.6945770546445004e-05
-1.622553027496672e-05   2.802726497520113e-06   2.412459580752703e-07
-1.622553027496672e-05   2.802726497520113e-06   2.412459580752703e-07
-1.622553027496672e-05   2.802726497520113e-06   2.412459580752703e-07
-1.622553027496672e-05   2.802726497520113e-06   2.412459580752703e-07
-1.589160342922186e-05   0.0   -1.6018646170483587e-05
-1.589160342922186e-05   0.0   -1.6018646170483587e-05
-1.589160342922186e-05   0.0   -1.6018646170483587e-05
-1.589160342922186e-05   0.0   -1.6018646170483587e-05
-2.6700930800830867e-05   3.3755191901124695e-06   -2.8412065202652263e-08
-2.6700930800830867e-05   3.3755191901124695e-06   -2.8412065202652263e-08
-2.6700930800830867e-05   3.3755191901124695e-06   -2.8412065202652263e-08
-2.6700930800830867e-05   3.3755191901124695e-06   -2.8412065202652263e-08
-2.0710181033896725e-05   7.726036466345131e-07   -8.451245684006108e-06
-2.0710181033896725e-05   7.726036466345131e-07   -8.451245684006108e-06
-2.0710181033896725e-05   7.726036466345131e-07   -8.451245684006108e-06
-2.0710181033896725e-05   7.726036466345131e-07   -8.451245684006108e-06
-2.670093080083091e-05   0.0   -1.804395768455107e-05
-2.670093080083091e-05   0.0   -1.804395768455107e-05
-2.670093080083091e-05   0.0   -1.804395768455107e-05
-2.670093080083091e-05   0.0   -1.804395768455107e-05
-1.589160342922186e-05   3.375519190112473e-06   1.9968994488648274e-06
-1.589160342922186e-05   3.375519190112473e-06   1.9968994488648274e-06
-1.589160342922186e-05   3.375519190112473e-06   1.9968994488648274e-06
-1.589160342922186e-05   3.375519190112473e-06   1.9968994488648274e-06
-1.5922321811396332e-05   0.0   -1.6406931503018192e-05
-1.5922321811396332e-05   0.0   -1.6406931503018192e-05
-1.5922321811396332e-05   0.0   -1.6406931503018192e-05
-1.5922321811396332e-05   0.0   -1.6406931503018192e-05
-2.7517663368397513e-05   3.619657017501548e-06   7.468435481495879e-07
-2.7517663368397513e-05   3.619657017501548e-06   7.468435481495879e-07
-2.7517663368397513e-05   3.619657017501548e-06   7.468435481495879e-07
-2.7517663368397513e-05   3.619657017501548e-06   7.468435481495879e-07
-2.1311626306113586e-05   1.3641884846107325e-06   -8.24327043592246e-06
-2.1311626306113586e-05   1.3641884846107325e-06   -8.24327043592246e-06
-2.1311626306113586e-05   1.3641884846107325e-06   -8.24327043592246e-06
-2.1311626306113586e-05   1.3641884846107325e-06   -8.24327043592246e-06
-2.751766336839756e-05   0.0   -1.8578725713519122e-05
-2.751766336839756e-05   0.0   -1.8578725713519122e-05
-2.751766336839756e-05   0.0   -1.8578725713519122e-05
-2.751766336839756e-05   0.0   -1.8578725713519122e-05
-1.5922321811396332e-05   3.6196570175015516e-06   2.9186377586505216e-06
-1.5922321811396332e-05   3.6196570175015516e-06   2.9186377586505216e-06
-1.5922321811396332e-05   3.6196570175015516e-06   2.9186377586505216e-06
-1.5922321811396332e-05   3.6196570175015516e-06   2.9186377586505216e-06
-1.5898059456590505e-05   0.0   -1.650892857290224e-05
-1.5898059456590505e-05   0.0   -1.650892857290224e-05
-1.5898059456590505e-05   0.0   -1.650892857290224e-05
-1.5898059456590505e-05   0.0   -1.650892857290224e-05
-2.929112179344265e-05   4.133826614414846e-06   3.332546019869165e-06
-2.929112179344265e-05   4.133826614414846e-06   3.332546019869165e-06
-2.929112179344265e-05   4.133826614414846e-06   3.332546019869165e-06
-2.929112179344265e-05   4.133826614414846e-06   3.332546019869165e-06
-2.1707861412493996e-05   1.7248309505140658e-06   -7.860823883371444e-06
-2.1707861412493996e-05   1.7248309505140658e-06   -7.860823883371444e-06
-2.1707861412493996e-05   1.7248309505140658e-06   -7.860823883371444e-06
-2.1707861412493996e-05   1.7248309505140658e-06   -7.860823883371444e-06
-1.622553027496675e-05   0.0   -1.5264134647932935e-05
-1.622553027496675e-05   0.0   -1.5264134647932935e-05
-1.622553027496675e-05   0.0   -1.5264134647932935e-05
-1.622553027496675e-05   0.0   -1.5264134647932935e-05
-7.405498406541517e-06   1.023034825108614e-06   4.973936117427669e-08
-7.405498406541517e-06   1.023034825108614e-06   4.973936117427669e-08
-7.405498406541517e-06   1.023034825108614e-06   4.973936117427669e-08
-7.405498406541517e-06   1.023034825108614e-06   4.973936117427669e-08
-7.1087624160889e-06   0.0   -1.5139740745716974e-05
-7.1087624160889e-06   0.0   -1.5139740745716974e-05
-7.1087624160889e-06   0.0   -1.5139740745716974e-05
-7.1087624160889e-06   0.0   -1.5139740745716974e-05
-1.589160342922186e-05   1.4648423746110188e-06   -1.3805778152619835e-06
-1.589160342922186e-05   1.4648423746110188e-06   -1.3805778152619835e-06
-1.589160342922186e-05   1.4648423746110188e-06   -1.3805778152619835e-06
-1.589160342922186e-05   1.4648423746110188e-06   -1.3805778152619835e-06
-1.1667146345527804e-05   1.0366158517996596e-07   -7.604631147760062e-06
-1.1667146345527804e-05   1.0366158517996596e-07   -7.604631147760062e-06
-1.1667146345527804e-05   1.0366158517996596e-07   -7.604631147760062e-06
-1.1667146345527804e-05   1.0366158517996596e-07   -7.604631147760062e-06
-1.5891603429221847e-05   0.0   -1.6018646170483573e-05
-1.5891603429221847e-05   0.0   -1.6018646170483573e-05
-1.5891603429221847e-05   0.0   -1.6018646170483573e-05
-1.5891603429221847e-05   0.0   -1.6018646170483573e-05
-7.1087624160889e-06   1.4648423746110188e-06   -5.016723904953709e-07
-7.1087624160889e-06   1.4648423746110188e-06   -5.016723904953709e-07
-7.1087624160889e-06   1.4648423746110188e-06   -5.016723904953709e-07
-7.1087624160889e-06   1.4648423746110188e-06   -5.016723904953709e-07
-6.936343132387654e-06   0.0   -1.532686969317102e-05
-6.936343132387654e-06   0.0   -1.532686969317102e-05
-6.936343132387654e-06   0.0   -1.532686969317102e-05
-6.936343132387654e-06   0.0   -1.532686969317102e-05
-1.5922321811396332e-05   1.8001030164119492e-06   -1.4303003713370576e-06
-1.5922321811396332e-05   1.8001030164119492e-06   -1.4303003713370576e-06
-1.5922321811396332e-05   1.8001030164119492e-06   -1.4303003713370576e-06
-1.5922321811396332e-05   1.8001030164119492e-06   -1.4303003713370576e-06
-1.1413973280804735e-05   5.764803977604724e-07   -8.210041017798771e-06
-1.1413973280804735e-05   5.764803977604724e-07   -8.210041017798771e-06
-1.1413973280804735e-05   5.764803977604724e-07   -8.210041017798771e-06
-1.1413973280804735e-05   5.764803977604724e-07   -8.210041017798771e-06
-1.5922321811396332e-05   0.0   -1.6406931503018192e-05
-1.5922321811396332e-05   0.0   -1.6406931503018192e-05
-1.5922321811396332e-05   0.0   -1.6406931503018192e-05
-1.5922321811396332e-05   0.0   -1.6406931503018192e-05
-6.936343132387654e-06   1.8001030164119492e-06   -3.5023856148988665e-07
-6.936343132387654e-06   1.8001030164119492e-06   -3.5023856148988665e-07
-6.936343132387654e-06   1.8001030164119492e-06   -3.5023856148988665e-07
-6.936343132387654e-06   1.8001030164119492e-06   -3.5023856148988665e-07
-6.777012834806456e-06   0.0   -1.5250144078619737e-05
-6.777012834806456e-06   0.0   -1.5250144078619737e-05
-6.777012834806456e-06   0.0   -1.5250144078619737e-05
-6.777012834806456e-06   0.0   -1.5250144078619737e-05
-1.5898059456590465e-05   2.097974157137478e-06   -1.3071842032621503e-06
-1.5898059456590465e-05   2.097974157137478e-06   -1.3071842032621503e-06
-1.5898059456590465e-05   2.097974157137478e-06   -1.3071842032621503e-06
-1.5898059456590465e-05   2.097974157137478e-06   -1.3071842032621503e-06
-1.134966732310139e-05   9.63989520332034e-07   -8.207446976994066e-06
-1.134966732310139e-05   9.63989520332034e-07   -8.207446976994066e-06
-1.134966732310139e-05   9.63989520332034e-07   -8.207446976994066e-06
-1.134966732310139e-05   9.63989520332034e-07   -8.207446976994066e-06
-7.40549840654153e-06   0.0   -1.4650313752867764e-05
-7.40549840654153e-06   0.0   -1.4650313752867764e-05
-7.40549840654153e-06   0.0   -1.4650313752867764e-05
-7.40549840654153e-06   0.0   -1.4650313752867764e-05
9.157255546270226e-07   -1.347500497905184e-07   -8.624571807944721e-07
9.157255546270226e-07   -1.347500497905184e-07   -8.624571807944721e-07
9.157255546270226e-07   -1.347500497905184e-07   -8.624571807944721e-07
9.157255546270226e-07   -1.347500497905184e-07   -8.624571807944721e-07
1.1116672078370054e-06   0.0   -1.498295303787675e-05
1.1116672078370054e-06   0.0   -1.498295303787675e-05
1.1116672078370054e-06   0.0   -1.498295303787675e-05
1.1116672078370054e-06   0.0   -1.498295303787675e-05
-7.1087624160889e-06   2.6131284640028803e-07   -1.4390247058404628e-06
-7.1087624160889e-06   2.6131284640028803e-07   -1.4390247058404628e-06
-7.1087624160889e-06   2.6131284640028803e-07   -1.4390247058404628e-06
-7.1087624160889e-06   2.6131284640028803e-07   -1.4390247058404628e-06
-3.1469155993522546e-06   -2.771994041741987e-07   -7.71899538339015e-06
-3.1469155993522546e-06   -2.771994041741987e-07   -7.71899538339015e-06
-3.1469155993522546e-06   -2.771994041741987e-07   -7.71899538339015e-06
-3.1469155993522546e-06   -2.771994041741987e-07   -7.71899538339015e-06
-7.1087624160889e-06   0.0   -1.5139740745716974e-05
-7.1087624160889e-06   0.0   -1.5139740745716974e-05
-7.1087624160889e-06   0.0   -1.5139740745716974e-05
-7.1087624160889e-06   0.0   -1.5139740745716974e-05
1.1116672078370073e-06   2.6131284640028464e-07   -1.2822369980002864e-06
1.1116672078370073e-06   2.6131284640028464e-07   -1.2822369980002864e-06
1.1116672078370073e-06   2.6131284640028464e-07   -1.2822369980002864e-06
1.1116672078370073e-06   2.6131284640028464e-07   -1.2822369980002864e-06
1.2681802743199074e-06   0.0   -1.4960434973859524e-05
1.2681802743199074e-06   0.0   -1.4960434973859524e-05
1.2681802743199074e-06   0.0   -1.4960434973859524e-05
1.2681802743199074e-06   0.0   -1.4960434973859524e-05
-6.936343132387641e-06   6.107245321857827e-07   -1.6526640153250793e-06
-6.936343132387641e-06   6.107245321857827e-07   -1.6526640153250793e-06
-6.936343132387641e-06   6.107245321857827e-07   -1.6526640153250793e-06
-6.936343132387641e-06   6.107245321857827e-07   -1.6526640153250793e-06
-2.9202910708844953e-06   1.4942147654785602e-07   -8.069302284447583e-06
-2.9202910708844953e-06   1.4942147654785602e-07   -8.069302284447583e-06
-2.9202910708844953e-06   1.4942147654785602e-07   -8.069302284447583e-06
-2.9202910708844953e-06   1.4942147654785602e-07   -8.069302284447583e-06
-6.936343132387654e-06   0.0   -1.532686969317102e-05
-6.936343132387654e-06   0.0   -1.532686969317102e-05
-6.936343132387654e-06   0.0   -1.532686969317102e-05
-6.936343132387654e-06   0.0   -1.532686969317102e-05
1.2681802743199097e-06   6.107245321857861e-07   -1.2862292960136131e-06
1.2681802743199097e-06   6.107245321857861e-07   -1.2862292960136131e-06
1.2681802743199097e-06   6.107245321857861e-07   -1.2862292960136131e-06
1.2681802743199097e-06   6.107245321857861e-07   -1.2862292960136131e-06
1.4740891863783886e-06   0.0   -1.464138764605289e-05
1.4740891863783886e-06   0.0   -1.464138764605289e-05
1.4740891863783886e-06   0.0   -1.464138764605289e-05
1.4740891863783886e-06   0.0   -1.464138764605289e-05
-6.77701283480645e-06   1.0145940542780566e-06   -1.4983073766449938e-06
-6.77701283480645e-06   1.0145940542780566e-06   -1.4983073766449938e-06
-6.77701283480645e-06   1.0145940542780566e-06   -1.4983073766449938e-06
-6.77701283480645e-06   1.0145940542780566e-06   -1.4983073766449938e-06
-2.7311269730046264e-06   5.71235039265086e-07   -7.975435070640245e-06
-2.7311269730046264e-06   5.71235039265086e-07   -7.975435070640245e-06
-2.7311269730046264e-06   5.71235039265086e-07   -7.975435070640245e-06
-2.7311269730046264e-06   5.71235039265086e-07   -7.975435070640245e-06
9.157255546270242e-07   0.0   -1.4731163782742075e-05
9.157255546270242e-07   0.0   -1.4731163782742075e-05
9.157255546270242e-07   0.0   -1.4731163782742075e-05
9.157255546270242e-07   0.0   -1.4731163782742075e-05
9.960283126514627e-06   -1.168313761833043e-06   -3.578894200292173e-07
9.960283126514627e-06   -1.168313761833043e-06   -3.578894200292173e-07
9.960283126514627e-06   -1.168313761833043e-06   -3.578894200292173e-07
9.960283126514627e-06   -1.168313761833043e-06   -3.578894200292173e-07
9.995552690657641e-06   0.0   -1.5509021003000497e-05
9.995552690657641e-06   0.0   -1.5509021003000497e-05
9.995552690657641e-06   0.0   -1.5509021003000497e-05
9.995552690657641e-06   0.0   -1.5509021003000497e-05
1.1116672078370092e-06   -8.767799418728215e-07   -1.7647723317575047e-07
1.1116672078370092e-06   -8.767799418728215e-07   -1.7647723317575047e-07
1.1116672078370092e-06   -8.767799418728215e-07   -1.7647723317575047e-07
1.1116672078370092e-06   -8.767799418728215e-07   -1.7647723317575047e-07
5.455639122642332e-06   -6.482143502153502e-07   -7.553569779512433e-06
5.455639122642332e-06   -6.482143502153502e-07   -7.553569779512433e-06
5.455639122642332e-06   -6.482143502153502e-07   -7.553569779512433e-06
5.455639122642332e-06   -6.482143502153502e-07   -7.553569779512433e-06
1.1116672078370092e-06   0.0   -1.4982953037876803e-05
1.1116672078370092e-06   0.0   -1.4982953037876803e-05
1.1116672078370092e-06   0.0   -1.4982953037876803e-05
1.1116672078370092e-06   0.0   -1.4982953037876803e-05
9.995552690657641e-06   -8.767799418728215e-07   -7.025451982994443e-07
9.995552690657641e-06   -8.767799418728215e-07   -7.025451982994443e-07
9.995552690657641e-06   -8.767799418728215e-07   -7.025451982994443e-07
9.995552690657641e-06   -8.767799418728215e-07   -7.025451982994443e-07
9.967874774132916e-06   0.0   -1.528768383031435e-05
9.967874774132916e-06   0.0   -1.528768383031435e-05
9.967874774132916e-06   0.0   -1.528768383031435e-05
9.967874774132916e-06   0.0   -1.528768383031435e-05
1.2681802743199097e-06   -5.454147607580014e-07   -4.6094414083787666e-07
1.2681802743199097e-06   -5.454147607580014e-07   -4.6094414083787666e-07
1.2681802743199097e-06   -5.454147607580014e-07   -4.6094414083787666e-07
1.2681802743199097e-06   -5.454147607580014e-07   -4.6094414083787666e-07
5.539770990984963e-06   -2.539423270312887e-07   -7.755145462182314e-06
5.539770990984963e-06   -2.539423270312887e-07   -7.755145462182314e-06
5.539770990984963e-06   -2.539423270312887e-07   -7.755145462182314e-06
5.539770990984963e-06   -2.539423270312887e-07   -7.755145462182314e-06
1.2681802743199087e-06   0.0   -1.4960434973859536e-05
1.2681802743199087e-06   0.0   -1.4960434973859536e-05
1.2681802743199087e-06   0.0   -1.4960434973859536e-05
1.2681802743199087e-06   0.0   -1.4960434973859536e-05
9.967874774132916e-06   -5.454147607580014e-07   -7.881929972926772e-07
9.967874774132916e-06   -5.454147607580014e-07   -7.881929972926772e-07
9.967874774132916e-06   -5.454147607580014e-07   -7.881929972926772e-07
9.967874774132916e-06   -5.454147607580014e-07   -7.881929972926772e-07
1.01754619596697e-05   0.0   -1.4702021269994627e-05
1.01754619596697e-05   0.0   -1.4702021269994627e-05
1.01754619596697e-05   0.0   -1.4702021269994627e-05
1.01754619596697e-05   0.0   -1.4702021269994627e-05
1.4740891863783912e-06   -1.0105603990285248e-07   -1.390996905674045e-07
1.4740891863783912e-06   -1.0105603990285248e-07   -1.390996905674045e-07
1.4740891863783912e-06   -1.0105603990285248e-07   -1.390996905674045e-07
1.4740891863783912e-06   -1.0105603990285248e-07   -1.390996905674045e-07
5.721821116994801e-06   2.1534475322076845e-07   -7.408493384135584e-06
5.721821116994801e-06   2.1534475322076845e-07   -7.408493384135584e-06
5.721821116994801e-06   2.1534475322076845e-07   -7.408493384135584e-06
5.721821116994801e-06   2.1534475322076845e-07   -7.408493384135584e-06
9.960283126514627e-06   0.0   -1.5432152039841902e-05
9.960283126514627e-06   0.0   -1.5432152039841902e-05
9.960283126514627e-06   0.0   -1.5432152039841902e-05
9.960283126514627e-06   0.0   -1.5432152039841902e-05
2.2579600095542748e-05   -2.9734822732021173e-06   3.815953544617157e-06
2.2579600095542748e-05   -2.9734822732021173e-06   3.815953544617157e-06
2.2579600095542748e-05   -2.9734822732021173e-06   3.815953544617157e-06
2.2579600095542748e-05   -2.9734822732021173e-06   3.815953544617157e-06
2.1228695575568014e-05   0.0   -1.7021432787980612e-05
2.1228695575568014e-05   0.0   -1.7021432787980612e-05
2.1228695575568014e-05   0.0   -1.7021432787980612e-05
2.1228695575568014e-05   0.0   -1.7021432787980612e-05
9.995552690657641e-06   -2.5206863083001954e-06   3.212883805183456e-06
9.995552690657641e-06   -2.5206863083001954e-06   3.212883805183456e-06
9.995552690657641e-06   -2.5206863083001954e-06   3.212883805183456e-06
9.995552690657641e-06   -2.5206863083001954e-06   3.212883805183456e-06
1.559448935104132e-05   -1.3244006234489281e-06   -6.836448706366764e-06
1.559448935104132e-05   -1.3244006234489281e-06   -6.836448706366764e-06
1.559448935104132e-05   -1.3244006234489281e-06   -6.836448706366764e-06
1.559448935104132e-05   -1.3244006234489281e-06   -6.836448706366764e-06
9.995552690657633e-06   0.0   -1.5509021003000483e-05
9.995552690657633e-06   0.0   -1.5509021003000483e-05
9.995552690657633e-06   0.0   -1.5509021003000483e-05
9.995552690657633e-06   0.0   -1.5509021003000483e-05
2.122869557556794e-05   -2.5206863083001886e-06   1.7004720202033267e-06
2.122869557556794e-05   -2.5206863083001886e-06   1.7004720202033267e-06
2.122869557556794e-05   -2.5206863083001886e-06   1.7004720202033267e-06
2.122869557556794e-05   -2.5206863083001886e-06   1.7004720202033267e-06
2.061257427058535e-05   0.0   -1.6667713757683353e-05
2.061257427058535e-05   0.0   -1.6667713757683353e-05
2.061257427058535e-05   0.0   -1.6667713757683353e-05
2.061257427058535e-05   0.0   -1.6667713757683353e-05
9.967874774132916e-06   -2.3000498789483414e-06   2.453481997106373e-06
9.967874774132916e-06   -2.3000498789483414e-06   2.453481997106373e-06
9.967874774132916e-06   -2.3000498789483414e-06   2.453481997106373e-06
9.967874774132916e-06   -2.3000498789483414e-06   2.453481997106373e-06
1.5304063480621487e-05   -9.655772955690503e-07   -7.240849397068823e-06
1.5304063480621487e-05   -9.655772955690503e-07   -7.240849397068823e-06
1.5304063480621487e-05   -9.655772955690503e-07   -7.240849397068823e-06
1.5304063480621487e-05   -9.655772955690503e-07   -7.240849397068823e-06
9.967874774132916e-06   0.0   -1.528768383031435e-05
9.967874774132916e-06   0.0   -1.528768383031435e-05
9.967874774132916e-06   0.0   -1.528768383031435e-05
9.967874774132916e-06   0.0   -1.528768383031435e-05
2.061257427058528e-05   -2.3000498789483346e-06   1.0734520697373588e-06
2.061257427058528e-05   -2.3000498789483346e-06   1.0734520697373588e-06
2.061257427058528e-05   -2.3000498789483346e-06   1.0734520697373588e-06
2.061257427058528e-05   -2.3000498789483346e-06   1.0734520697373588e-06
1.9684766826099187e-05   0.0   -1.576807343409366e-05
1.9684766826099187e-05   0.0   -1.576807343409366e-05
1.9684766826099187e-05   0.0   -1.576807343409366e-05
1.9684766826099187e-05   0.0   -1.576807343409366e-05
1.01754619596697e-05   -1.7767536068317653e-06   1.146820174054573e-06
1.01754619596697e-05   -1.7767536068317653e-06   1.146820174054573e-06
1.01754619596697e-05   -1.7767536068317653e-06   1.146820174054573e-06
1.01754619596697e-05   -1.7767536068317653e-06   1.146820174054573e-06
1.4826320800116069e-05   -4.003246698161152e-07   -7.430468588898759e-06
1.4826320800116069e-05   -4.003246698161152e-07   -7.430468588898759e-06
1.4826320800116069e-05   -4.003246698161152e-07   -7.430468588898759e-06
1.4826320800116069e-05   -4.003246698161152e-07   -7.430468588898759e-06
-2.2008279084304918e-05   2.8027264975201097e-06   -1.456743112888661e-05
-2.2008279084304918e-05   2.8027264975201097e-06   -1.456743112888661e-05
-2.2008279084304918e-05   2.8027264975201097e-06   -1.456743112888661e-05